mof_name,metal,linker_smiles,surface_func_group,temperature_celsius,reaction_time_hours,solvent,topology,surface_area_m2g,pore_diameter_angstrom,void_fraction,formation_energy_kJ_mol
MOF_0519,Dy,C1=CC(=CC=C1C(=O)O)C(=O)O,Pyridine,97,9.870318763021112,MeOH,pcu,3525.033384864812,13.126570808992959,0.26642341328390656,-40.0779559836929
MOF_0520,Al,C1=CC(=C(C=C1C(=O)O)C(=O)O)O,AcOH,58,34.432309686826,CHCl3,dia,2178.7064727348234,19.50658060762102,0.6871149337458669,-46.67902548801036
MOF_0521,Cr,C1=CC(=CC=C1)C(=O)O,Pyridine,159,38.9805076248527,EtOH,pcu,3326.211039945481,19.712367581201008,0.6976480983489914,-42.90381717281634
MOF_0522,Al,C1=CC(=C(C=C1C(=O)O)C(=O)O)O,Pyridine,127,11.187595788698886,MeOH,cmo,2071.795607271766,12.854185382497374,0.6811677920270419,-41.55328693653853
MOF_0523,Cr,C1=CC(=CC=C1)C(=O)O,NaOH,103,8.589775843482816,EtOH,mtn,2969.9268944537,3.018479336683853,0.636091184571342,-39.67480746471817
MOF_0524,Co,C1=C(C(=C(C(=C1Cl)Cl)Cl)Cl)C(=O)O,NaOH,137,10.402681242643803,CHCl3,dia,1883.328708052595,18.311161363062794,0.6759877078399411,-43.939296508992506
MOF_0525,Dy,C1=C(C(=C(C(=C1Cl)Cl)Cl)Cl)C(=O)O,No additive,74,42.59361272353408,EtOH,cmo,1916.0688447660266,12.694045397809818,0.6025894047617111,-46.25047507059259
MOF_0526,Co,C1=CC(=C(C=C1)C(=O)O)C(=O)O,NaOH,116,27.24032751727967,MeOH,bcu,1111.2595230422626,9.22193894092891,0.6019000032897732,-46.508383441396305
MOF_0527,Cr,C1=CC(=CC=C1)C(=O)O,NaOH,105,24.559483824330115,MeOH,cmo,2150.7985734187037,17.09631739727095,0.6004170784950849,-43.03280258887834
MOF_0528,Tb,C1=CC(=C(C=C1)C(=O)O)C(=O)O,HCl,107,8.695320040503589,EtOH,pcu,3218.8663328548246,9.797151808953487,0.5084256738069226,-50.8197440884322
MOF_0529,Tb,C1=CC(=CC=C1C(=O)O)C(=O)O,,138,32.58046429730632,MeOH,mtn,2973.77853395024,3.5787566054044992,0.4180083400789067,-42.50124649492289
MOF_0530,Co,C1=CC(=CC=C1)C(=O)O,NH4OH,121,42.19198204338396,MeOH,mtn,2681.813967034548,16.95822779196932,0.6381171596969331,-45.467007863109885
MOF_0531,Tb,C1=CC(=C(C=C1C(=O)O)C(=O)O)O,No additive,108,40.44017825023193,EtOH,cmo,2013.8767958234973,12.279609817335958,0.379187608152045,-47.85373534545651
MOF_0532,Cr,C1=CC(=CC=C1C(=O)O)C(=O)O,HCl,50,31.546407195155258,CHCl3,bcu,1544.8939279789809,8.748440149811335,0.5257412788865716,-49.63403028338188
MOF_0533,Fe,C1=CC(=CC=C1C(=O)O)C(=O)O,NH4OH,71,7.31226353267364,MeOH,pcu,3012.1257621332006,7.265170398015471,0.46001337213072885,-43.001136200828114
MOF_0534,Co,C1=CC(=C(C=C1C(=O)O)C(=O)O)O,Pyridine,96,8.94546919574457,MeOH,cmo,1542.9107736185153,13.094556810062235,0.3659733662562207,-44.45231666309864
MOF_0535,Zn,C1=CC(=CC=C1C(=O)O)C(=O)O,HCl,102,6.169595432832286,MeOH,cmo,1364.609805541211,6.536842319826702,0.7848139522714781,-48.61402719403382
MOF_0536,Dy,C1=CC(=CC=C1)C(=O)O,Formic acid,66,15.32908552566865,MeOH,mtn,3486.648597741162,8.505465071469054,0.3552509871210917,-44.46264712774913
MOF_0537,Tb,C1=CC(=C(C=C1)C(=O)O)C(=O)O,HCl,172,9.96910455505662,EtOH,pcu,3194.3609048621347,13.82101526003772,0.385575838233818,-47.03706233187517
MOF_0538,Tb,C1=CC(=CC=C1C(=O)O)C(=O)O,NaOH,145,15.442113771107092,CHCl3,bcu,1536.2091642289472,17.986255656900845,0.29695250105484094,-43.31810047584662
MOF_0539,Cu,C1=CC(=CC=C1)C(=O)O,NH4OH,118,20.942554451634315,CHCl3,mtn,2377.09258780439,12.059135582657179,0.6937883751885744,-45.18320839423348
MOF_0540,Mn,C1=C(C(=C(C(=C1Cl)Cl)Cl)Cl)C(=O)O,No additive,102,45.49124249912997,DMF,cmo,1541.9201977949272,15.904808771084573,0.5519536403326937,-49.73692064513895
MOF_0541,Co,C1=CC(=CC=C1)C(=O)O,No additive,93,30.85654663039445,MeOH,mtn,2521.151508558742,15.972030263971712,0.5678235538834315,-43.5775282434447
MOF_0542,Ni,C1=CC(=C(C=C1)C(=O)O)C(=O)O,NH4OH,71,40.73884657005034,MeOH,mtn,2661.6142225716276,14.294017195209575,0.6923368470794588,-43.81933135460249
MOF_0543,Tb,C1=CC(=CC=C1)C(=O)O,NaOH,102,35.25546603134262,DMF,dia,2793.0227985020815,7.1792517405688,0.4057517951779277,-42.60884044683284
MOF_0544,Dy,C1=CC(=C(C=C1C(=O)O)C(=O)O)O,AcOH,107,8.950137743171798,CHCl3,mtn,3084.160104313526,17.735406168554114,0.3161800552281283,-40.394765879078314
MOF_0545,Zn,C1=CC(=C(C=C1)C(=O)O)C(=O)O,HCl,62,36.380497880453746,H2O,mtn,2612.39851519365,10.416686145872632,0.3190432183963424,-47.993041959662115
MOF_0546,Tb,C1=C(C(=C(C(=C1Cl)Cl)Cl)Cl)C(=O)O,NaOH,110,16.104350788601476,H2O,pcu,3255.6197250625664,3.75158264690691,0.6395718928773557,-44.11012114510462
MOF_0547,Zn,C1=CC(=C(C=C1C(=O)O)C(=O)O)O,Formic acid,95,32.12074526776708,CHCl3,mtn,2887.8116582640605,7.1584153911819275,0.5684690926774685,-50.472607488996815
MOF_0548,Cr,C1=CC(=CC=C1)C(=O)O,,42,19.002326840291495,MeOH,bcu,1626.7278062474838,16.014322019688368,0.32380332714925336,-44.090611958228266
MOF_0549,Cr,C1=CC(=C(C=C1)C(=O)O)C(=O)O,Pyridine,74,47.897579583645005,H2O,cmo,1879.9176979580975,4.175266708897319,0.28703923678425414,-43.658797736000935
MOF_0550,Mn,C1=C(C(=C(C(=C1Cl)Cl)Cl)Cl)C(=O)O,NH4OH,87,15.596265097858224,EtOH,pcu,2290.5979006467073,5.505194836633491,0.2724123830971837,-49.10995293061518
MOF_0551,Fe,C1=CC(=C(C=C1C(=O)O)C(=O)O)O,,156,16.281740714067865,EtOH,mtn,2218.2222314399137,14.801855872708975,0.5766791886218228,-49.20553948643958
MOF_0552,Ni,C1=C(C(=C(C(=C1Cl)Cl)Cl)Cl)C(=O)O,HCl,116,44.94957924474552,DMF,bcu,1119.0564889597135,18.174213425368187,0.20007118694651002,-51.46475621918118
MOF_0553,Cu,C1=CC(=CC=C1)C(=O)O,No additive,59,5.084353803998198,CHCl3,cmo,1872.8831723703759,13.773444085979826,0.21099160556212626,-49.38413381901343
MOF_0554,Mn,C1=C(C(=C(C(=C1Cl)Cl)Cl)Cl)C(=O)O,Pyridine,114,34.65431546642066,CHCl3,pcu,2637.1985546128394,6.778947915102428,0.4337318813756572,-51.673841737244466
MOF_0555,Al,C1=CC(=CC=C1C(=O)O)C(=O)O,,53,35.914361192378635,H2O,bcu,1536.6929354524932,3.9080339752423265,0.6148099185656974,-47.46804385289543
MOF_0556,Cu,C1=CC(=C(C=C1C(=O)O)C(=O)O)O,AcOH,132,40.80065740605757,MeOH,mtn,2665.957359311478,13.4571519033553,0.6170236258984424,-49.05902817069893
MOF_0557,Co,C1=C(C(=C(C(=C1Cl)Cl)Cl)Cl)C(=O)O,,85,46.87532966809292,CHCl3,dia,1766.423368979716,3.8057758248297877,0.4580709641646144,-48.46125613270596
MOF_0558,Dy,C1=CC(=CC=C1)C(=O)O,Formic acid,97,46.92648444289271,H2O,dia,2541.3500103111246,13.41627488300987,0.6146441639627418,-46.503212444578
MOF_0559,Al,C1=CC(=CC=C1)C(=O)O,No additive,139,6.872177332924411,H2O,pcu,2792.7289751320113,6.834859050738616,0.5126577077480754,-47.15593557600228
MOF_0560,Al,C1=C(C(=C(C(=C1Cl)Cl)Cl)Cl)C(=O)O,NH4OH,61,40.16093020112771,CHCl3,bcu,1644.2038052306964,18.379153060950102,0.7861588500783894,-44.205533752479944
MOF_0561,Mn,C1=CC(=CC=C1)C(=O)O,HCl,58,32.43763708092477,H2O,cmo,1581.9030352090858,11.076575364285151,0.29747612830209985,-50.67494362223398
MOF_0562,Fe,C1=CC(=C(C=C1)C(=O)O)C(=O)O,NH4OH,82,32.48305391241601,DMF,bcu,1481.6616446377298,6.8069533662648265,0.5604003606233634,-46.37359794706671
MOF_0563,Mn,C1=CC(=C(C=C1)C(=O)O)C(=O)O,Pyridine,131,9.647396771046571,DMF,dia,2103.523615991965,17.503470381496058,0.4947432655706022,-45.187242205899885
MOF_0564,Co,C1=CC(=C(C=C1)C(=O)O)C(=O)O,HCl,54,32.608235323608746,CHCl3,pcu,2915.198959305822,7.318601773607641,0.31667980679461666,-49.56412184043408
MOF_0565,Tb,C1=CC(=CC=C1C(=O)O)C(=O)O,NaOH,15,47.22923354645491,MeOH,mtn,2894.2172769345475,8.212184300922884,0.6499942592850221,-39.32871357851681
MOF_0566,Tb,C1=C(C(=C(C(=C1Cl)Cl)Cl)Cl)C(=O)O,AcOH,86,44.120017059735666,DMF,bcu,1916.5438655761359,17.182724283942747,0.3653048119591972,-48.33014489033706
MOF_0567,Fe,C1=CC(=CC=C1C(=O)O)C(=O)O,NaOH,116,23.321749075413422,DMF,dia,2048.1096103362675,8.249464506610131,0.429025891456125,-45.05172604510952
MOF_0568,Co,C1=CC(=CC=C1)C(=O)O,NaOH,136,5.757710824588151,CHCl3,cmo,1261.970299667093,9.972784076920835,0.42489834175251806,-49.40023726316005
MOF_0569,Fe,C1=CC(=CC=C1C(=O)O)C(=O)O,NH4OH,86,19.94091356000901,EtOH,pcu,2828.248875018439,8.910316402900731,0.3465226839127693,-45.15774016059196
MOF_0570,Zn,C1=CC(=CC=C1)C(=O)O,Pyridine,87,40.36117371042443,H2O,mtn,2929.425818028469,4.9788054031163895,0.45842319901904316,-39.01725987940943
MOF_0571,Tb,C1=CC(=CC=C1)C(=O)O,AcOH,134,34.86596046446731,DMF,bcu,1477.22962061081,3.6612288081960447,0.48400752855657103,-47.28972504781214
MOF_0572,Al,C1=CC(=C(C=C1C(=O)O)C(=O)O)O,,43,24.211120846134083,EtOH,cmo,2156.571648741438,15.317191459036682,0.6465330036855845,-45.15767844877751
MOF_0573,Ni,C1=CC(=C(C=C1)C(=O)O)C(=O)O,HCl,88,6.424467546988568,MeOH,mtn,2279.3366881695674,13.96733110690725,0.6590411446262223,-48.091034213081016
MOF_0574,Dy,C1=CC(=CC=C1)C(=O)O,HCl,105,22.783368024225314,EtOH,dia,2433.781608492876,7.800223148384972,0.29513358097499726,-45.46538755942919
MOF_0575,Co,C1=CC(=C(C=C1C(=O)O)C(=O)O)O,Formic acid,113,24.637097347586874,CHCl3,dia,1891.0524928517862,8.025185124742935,0.5556633795965193,-49.270951849931315
MOF_0576,Cu,C1=CC(=C(C=C1)C(=O)O)C(=O)O,No additive,84,44.85644344734198,MeOH,cmo,1278.2047577640383,19.065098311147583,0.7377186789676373,-48.65136753694881
MOF_0577,Fe,C1=CC(=CC=C1)C(=O)O,Formic acid,101,32.20778855761502,MeOH,dia,1891.3732754559271,19.790409162969368,0.2652719653307365,-49.075797395536235
MOF_0578,Dy,C1=CC(=CC=C1)C(=O)O,,25,17.712728332804552,EtOH,pcu,3307.6281390988456,11.04839335497279,0.4837484267204832,-44.177628196685866
MOF_0579,Cu,C1=CC(=CC=C1C(=O)O)C(=O)O,Formic acid,80,27.11400363583174,CHCl3,cmo,1593.9788932307233,16.641679673185394,0.6502118734450058,-50.50028176883494
MOF_0580,Dy,C1=CC(=CC=C1C(=O)O)C(=O)O,HCl,113,6.906433544175043,DMF,dia,1929.7051016237795,15.523659889779212,0.566894800629406,-43.857143804771624
MOF_0581,Ni,C1=CC(=C(C=C1)C(=O)O)C(=O)O,NH4OH,70,46.79300236858842,EtOH,bcu,1463.3106046719656,8.054401061704798,0.26035139395797435,-42.11523242220865
MOF_0582,Cu,C1=CC(=CC=C1)C(=O)O,NaOH,101,19.842635684951944,DMF,dia,2121.3347402887343,3.9955660788481318,0.4379636752105835,-46.01054363148437
MOF_0583,Mn,C1=C(C(=C(C(=C1Cl)Cl)Cl)Cl)C(=O)O,Pyridine,113,25.026163616177975,EtOH,pcu,2786.2922491178756,5.42345637129398,0.5043436989301184,-47.92200133732279
MOF_0584,Cr,C1=CC(=CC=C1C(=O)O)C(=O)O,NaOH,89,19.632494866424594,DMF,mtn,2781.6689043833203,17.25099998901298,0.7975073610297638,-40.55654658573892
MOF_0585,Mn,C1=CC(=C(C=C1)C(=O)O)C(=O)O,NaOH,105,34.03051612511281,EtOH,mtn,2321.4337160336327,15.430634939936779,0.3071647455941917,-45.59019839070804
MOF_0586,Tb,C1=CC(=CC=C1)C(=O)O,AcOH,71,33.13821496650209,MeOH,dia,2652.2871240299123,14.293692355858724,0.7894542602960677,-44.36343179014295
MOF_0587,Cr,C1=CC(=CC=C1)C(=O)O,HCl,93,35.47418166328197,H2O,mtn,3285.499163545576,5.221030138843021,0.4256898705376664,-46.69589468672954
MOF_0588,Mn,C1=C(C(=C(C(=C1Cl)Cl)Cl)Cl)C(=O)O,,118,15.798302102924517,MeOH,dia,2165.7861876505112,13.87882168665892,0.32019229164429286,-51.46896360842233
MOF_0589,Cr,C1=CC(=C(C=C1)C(=O)O)C(=O)O,,104,17.889413171218905,DMF,pcu,3320.5429949144427,16.126589635382963,0.4484654492743977,-44.68161007353465
MOF_0590,Cr,C1=CC(=CC=C1)C(=O)O,Pyridine,82,9.51105416823315,CHCl3,mtn,3068.8052284116297,17.630229747624938,0.5683970744208904,-37.66992404714769
MOF_0591,Al,C1=CC(=CC=C1C(=O)O)C(=O)O,NH4OH,106,32.842438761228955,MeOH,bcu,1263.410160762332,3.2249317462915097,0.3280984363465975,-45.02516997925946
MOF_0592,Fe,C1=C(C(=C(C(=C1Cl)Cl)Cl)Cl)C(=O)O,AcOH,121,5.751073602768712,H2O,dia,2302.975238845462,14.636076731934121,0.3748634499812767,-49.80548496855942
MOF_0593,Fe,C1=CC(=C(C=C1)C(=O)O)C(=O)O,No additive,38,30.2980227630322,DMF,mtn,2567.9371516667907,3.3246601452544753,0.712727901041174,-44.55809391948431
MOF_0594,Al,C1=C(C(=C(C(=C1Cl)Cl)Cl)Cl)C(=O)O,NH4OH,134,42.26661893347189,MeOH,pcu,3156.788195487146,15.016838374238455,0.7994056770013207,-47.58714055254765
MOF_0595,Dy,C1=CC(=CC=C1C(=O)O)C(=O)O,Formic acid,89,43.19661452474388,EtOH,pcu,3443.434114551204,13.805563200444082,0.3909036148990559,-49.55834128603008
MOF_0596,Zn,C1=CC(=C(C=C1)C(=O)O)C(=O)O,NH4OH,112,23.757661456278313,CHCl3,bcu,1021.0695483135826,5.521913669622533,0.2893140823699642,-47.05081102772019
MOF_0597,Dy,C1=C(C(=C(C(=C1Cl)Cl)Cl)Cl)C(=O)O,NH4OH,135,24.209362281375245,DMF,pcu,3287.7088551926563,16.024069772867215,0.675902491996425,-44.68401279435564
MOF_0598,Cu,C1=CC(=C(C=C1C(=O)O)C(=O)O)O,NaOH,58,7.386644052352764,MeOH,pcu,2790.7762740073026,4.161909509224749,0.5602734123650872,-45.83303656436136
MOF_0599,Cu,C1=CC(=CC=C1C(=O)O)C(=O)O,NH4OH,78,33.51366111949358,DMF,mtn,2510.2828394437634,17.04877915365877,0.2602406860253607,-46.05743814441534
MOF_0600,Cr,C1=CC(=CC=C1C(=O)O)C(=O)O,,91,40.135414496405204,EtOH,dia,2512.364595167282,7.452797162419893,0.7680628888616128,-42.348669709822225
MOF_0601,Mn,C1=CC(=CC=C1C(=O)O)C(=O)O,Formic acid,76,14.764822402607374,H2O,cmo,1686.769388062277,14.710481659111304,0.24682971703993523,-52.77667099939043
MOF_0602,Mn,C1=CC(=C(C=C1C(=O)O)C(=O)O)O,Formic acid,152,22.537238791868045,MeOH,pcu,2385.351883871504,18.702718797371794,0.5752138409801848,-54.69195821887989
MOF_0603,Fe,C1=CC(=C(C=C1C(=O)O)C(=O)O)O,HCl,74,40.908930817671894,DMF,pcu,2746.969943870839,8.777059419448632,0.4543623535361489,-52.54802332948143
MOF_0604,Co,C1=CC(=CC=C1)C(=O)O,NH4OH,83,42.593300577140674,DMF,cmo,1627.76257488824,11.549199324987127,0.5339743509439616,-44.80270209845746
MOF_0605,Dy,C1=C(C(=C(C(=C1Cl)Cl)Cl)Cl)C(=O)O,NaOH,106,14.699919131625942,DMF,pcu,3604.699790908831,10.873006577157657,0.3279285173960867,-41.867658063857036
MOF_0606,Tb,C1=CC(=CC=C1)C(=O)O,NH4OH,63,28.225107919820026,H2O,mtn,3089.1803923586085,5.679392934068758,0.612866239550391,-39.04729568145453
MOF_0607,Ni,C1=C(C(=C(C(=C1Cl)Cl)Cl)Cl)C(=O)O,No additive,88,12.46969862797639,DMF,mtn,2107.780569194225,13.035304178342948,0.775831813480004,-45.390812389971245
MOF_0608,Mn,C1=CC(=C(C=C1C(=O)O)C(=O)O)O,No additive,109,8.482665622140487,CHCl3,cmo,1490.3634257309866,15.631032614856116,0.4750555244269494,-48.45933178386942
MOF_0609,Ni,C1=CC(=C(C=C1C(=O)O)C(=O)O)O,NaOH,90,44.08930206124613,CHCl3,pcu,2786.654090193741,18.586872091704926,0.5137749665409364,-47.83742414805316
MOF_0610,Cr,C1=CC(=CC=C1)C(=O)O,HCl,97,40.102330186212804,DMF,pcu,3571.40388456366,17.463644228041716,0.34388700234132885,-51.2138486439172
MOF_0611,Ni,C1=CC(=C(C=C1)C(=O)O)C(=O)O,HCl,84,37.44153567933965,CHCl3,dia,1992.1151848369548,11.670329455376539,0.7351207902506487,-49.745617946264055
MOF_0612,Tb,C1=CC(=CC=C1)C(=O)O,Formic acid,54,6.145718027778178,MeOH,pcu,3062.800664720141,15.223291626702892,0.782704643083975,-46.887977678737904
MOF_0613,Al,C1=C(C(=C(C(=C1Cl)Cl)Cl)Cl)C(=O)O,Formic acid,109,41.12406687925133,CHCl3,mtn,2858.7258508369873,16.61331802735618,0.6717781310516326,-47.887006456954204
MOF_0614,Tb,C1=CC(=CC=C1)C(=O)O,AcOH,152,23.273939339836886,DMF,bcu,1775.0114295378407,11.38930813355193,0.5256641012958825,-49.521207747669834
MOF_0615,Ni,C1=CC(=CC=C1C(=O)O)C(=O)O,NaOH,100,19.065385425017823,EtOH,bcu,1493.2429516314542,4.962268531972551,0.7740780947051784,-45.473641023476965
MOF_0616,Tb,C1=C(C(=C(C(=C1Cl)Cl)Cl)Cl)C(=O)O,NH4OH,106,28.044959885116562,MeOH,bcu,1781.4143174446292,10.444822985405304,0.2923100332203661,-44.16437941684774
MOF_0617,Zn,C1=C(C(=C(C(=C1Cl)Cl)Cl)Cl)C(=O)O,Pyridine,120,8.019542679836457,H2O,bcu,1449.6784923903615,17.3221266494266,0.4870945159371311,-41.89147359377033
MOF_0618,Cr,C1=CC(=C(C=C1)C(=O)O)C(=O)O,NaOH,61,37.29244817150555,DMF,pcu,3471.7030859551205,13.142903891693495,0.5225634240358479,-45.170532788121086
MOF_0619,Dy,C1=CC(=C(C=C1C(=O)O)C(=O)O)O,AcOH,151,29.62714338308502,H2O,pcu,3321.8869814809864,15.315792409158764,0.4951498518514261,-53.14119543001322
MOF_0620,Al,C1=C(C(=C(C(=C1Cl)Cl)Cl)Cl)C(=O)O,Formic acid,106,12.209964262419371,EtOH,dia,2346.9298145748276,6.1495563765939885,0.681450972307222,-45.651684737523894
MOF_0621,Mn,C1=CC(=C(C=C1C(=O)O)C(=O)O)O,NaOH,148,12.282216789838007,H2O,pcu,2699.957482381347,19.393742059587098,0.6022417346098186,-53.87630141971323
MOF_0622,Cu,C1=CC(=CC=C1)C(=O)O,NaOH,78,12.106940669197666,DMF,bcu,1465.3271614007133,9.86936900138626,0.27599507955095703,-47.93322562912591
MOF_0623,Dy,C1=CC(=CC=C1C(=O)O)C(=O)O,Formic acid,154,6.508105052285096,DMF,cmo,2189.8189940450548,14.111803886201391,0.4078707844058363,-42.52172061823239
MOF_0624,Cu,C1=CC(=C(C=C1)C(=O)O)C(=O)O,,123,29.86313177235413,EtOH,cmo,1734.7829987240343,3.3208283280402897,0.40344610903213185,-47.61316690951173
MOF_0625,Cr,C1=CC(=C(C=C1C(=O)O)C(=O)O)O,AcOH,116,40.97531981389436,DMF,mtn,2870.2612245414743,5.1644274583399525,0.5393793156757573,-45.1527023528631
MOF_0626,Al,C1=C(C(=C(C(=C1Cl)Cl)Cl)Cl)C(=O)O,Formic acid,107,4.769921415445099,EtOH,mtn,2943.511509985965,16.294582588043625,0.3748750505947382,-46.806724996786
MOF_0627,Fe,C1=CC(=C(C=C1C(=O)O)C(=O)O)O,HCl,92,6.156204378736036,EtOH,pcu,2668.1509083115884,19.45548057384433,0.27036306173234637,-52.177755963031515
MOF_0628,Mn,C1=C(C(=C(C(=C1Cl)Cl)Cl)Cl)C(=O)O,NH4OH,136,29.201892174225616,DMF,cmo,1472.1051887294002,8.44094103594313,0.5922095993942813,-46.06794968089543
MOF_0629,Zn,C1=CC(=C(C=C1C(=O)O)C(=O)O)O,Formic acid,104,40.0578101569863,CHCl3,bcu,1266.2320139991616,3.6320724940015023,0.7106221631210137,-49.8734341466763
MOF_0630,Fe,C1=C(C(=C(C(=C1Cl)Cl)Cl)Cl)C(=O)O,AcOH,40,18.37651118501988,EtOH,bcu,1493.9933412703908,9.134732233662337,0.7589648572795544,-48.26504014178233
MOF_0631,Cr,C1=CC(=CC=C1)C(=O)O,No additive,66,19.383033547539775,DMF,bcu,1256.9696505638774,3.2969582147430447,0.7835470505956856,-42.36684898055053
MOF_0632,Dy,C1=C(C(=C(C(=C1Cl)Cl)Cl)Cl)C(=O)O,HCl,94,30.23924588985814,CHCl3,pcu,3573.4562385216927,6.270342568461976,0.6686701077254085,-48.15179748094306
MOF_0633,Zn,C1=C(C(=C(C(=C1Cl)Cl)Cl)Cl)C(=O)O,No additive,109,16.065367121462465,EtOH,pcu,3003.0695575638065,15.792024255913553,0.28382145697514133,-50.579294179223716
MOF_0634,Tb,C1=CC(=CC=C1C(=O)O)C(=O)O,Pyridine,98,5.170768107418102,CHCl3,dia,2844.4319288155075,18.930502767810435,0.7118670945420347,-37.57096558900073
MOF_0635,Ni,C1=C(C(=C(C(=C1Cl)Cl)Cl)Cl)C(=O)O,Formic acid,136,36.350054796470225,MeOH,bcu,1279.0799695957576,4.486634434271073,0.4399760440294844,-52.64079898911482
MOF_0636,Zn,C1=CC(=CC=C1C(=O)O)C(=O)O,HCl,41,31.52859616942394,MeOH,bcu,1459.020660560937,12.484313239778658,0.6379467882754182,-52.08271955736646
MOF_0637,Cr,C1=CC(=C(C=C1)C(=O)O)C(=O)O,NH4OH,104,29.553263958449,CHCl3,pcu,3436.506456505882,7.315974384108543,0.5187608029765016,-42.96582654655769
MOF_0638,Co,C1=CC(=CC=C1C(=O)O)C(=O)O,Formic acid,45,36.63410167564022,EtOH,pcu,2730.7014570843116,5.364005138496802,0.6971636801892702,-50.17859581632151
MOF_0639,Ni,C1=CC(=CC=C1)C(=O)O,NH4OH,122,33.710156852729654,DMF,dia,1990.9665614599844,6.722663908156478,0.4553034397038132,-45.016357172999285
MOF_0640,Cu,C1=CC(=CC=C1C(=O)O)C(=O)O,,97,13.05880747984613,H2O,dia,2178.880008417716,12.821972147461027,0.23707628644401246,-46.3622261456016
MOF_0641,Mn,C1=CC(=C(C=C1)C(=O)O)C(=O)O,NaOH,112,19.50916606550745,DMF,mtn,2326.4970324718242,4.107286524547337,0.5340942265294826,-48.57446172874638
MOF_0642,Cu,C1=CC(=CC=C1)C(=O)O,No additive,74,9.5488462338595,H2O,cmo,1859.0520338062934,10.381716134863098,0.30277433280060395,-46.02178264917007
MOF_0643,Zn,C1=CC(=C(C=C1C(=O)O)C(=O)O)O,HCl,138,9.713708590386766,H2O,bcu,1164.1732288970768,5.298873466237786,0.7793105794117536,-49.80579341992739
MOF_0644,Cu,C1=CC(=C(C=C1C(=O)O)C(=O)O)O,NH4OH,131,33.75261283968773,EtOH,bcu,1670.695975270965,7.635509890706185,0.5161778394952949,-47.682294770804376
MOF_0645,Cr,C1=CC(=CC=C1C(=O)O)C(=O)O,AcOH,117,41.778404707229924,CHCl3,dia,2062.3667837109333,6.242823605635486,0.5321352763023564,-49.557594599637035
MOF_0646,Tb,C1=CC(=CC=C1C(=O)O)C(=O)O,NH4OH,96,46.360233689890116,DMF,dia,2734.4374623395042,18.010583497125253,0.7443594276888907,-43.954573346350216
MOF_0647,Dy,C1=CC(=C(C=C1)C(=O)O)C(=O)O,AcOH,117,31.647273172175552,CHCl3,mtn,2846.707506339159,15.036192624811923,0.574751147090705,-42.13250053819188
MOF_0648,Mn,C1=CC(=C(C=C1)C(=O)O)C(=O)O,Formic acid,78,12.100458227882108,MeOH,cmo,1926.1168236819576,17.763863842107,0.38163762631382436,-52.41437867982418