mof_name,metal,linker_smiles,surface_func_group,temperature_celsius,reaction_time_hours,solvent,topology,surface_area_m2g,pore_diameter_angstrom,void_fraction,formation_energy_kJ_mol
MOF_0389,Co,C1=CC(=CC=C1C(=O)O)C(=O)O,AcOH,54,46.53630601154475,EtOH,mtn,2334.8519139974765,4.952093539263281,0.6326126235816509,-46.916673675788815
MOF_0390,Dy,C1=CC(=C(C=C1C(=O)O)C(=O)O)O,Pyridine,144,46.15807727139783,H2O,pcu,3242.0385331046946,19.26141744465847,0.5857304089947518,-45.56618693827283
MOF_0391,Cr,C1=CC(=CC=C1)C(=O)O,No additive,64,14.895792295143302,CHCl3,pcu,3560.0731670605983,9.260595532567056,0.5390736025898303,-47.78025407430255
MOF_0392,Cu,C1=C(C(=C(C(=C1Cl)Cl)Cl)Cl)C(=O)O,,106,19.314286041002102,DMF,cmo,1758.3066765298558,13.986292800172238,0.633782314665785,-47.637875778009715
MOF_0393,Tb,C1=CC(=C(C=C1C(=O)O)C(=O)O)O,Pyridine,67,43.40445259845094,EtOH,bcu,1749.7930260076857,3.5907513894787826,0.4517923056026063,-39.54797167459794
MOF_0394,Tb,C1=CC(=C(C=C1C(=O)O)C(=O)O)O,Formic acid,82,46.53137771942873,MeOH,mtn,2671.6453471383415,18.111032659425156,0.25794594842339846,-44.87731690919613
MOF_0395,Cu,C1=C(C(=C(C(=C1Cl)Cl)Cl)Cl)C(=O)O,,74,23.511320524785937,DMF,cmo,1509.4214257126587,13.907154598862704,0.2239916772787045,-48.2580327744723
MOF_0396,Zn,C1=C(C(=C(C(=C1Cl)Cl)Cl)Cl)C(=O)O,Formic acid,81,18.123870008199503,H2O,bcu,1621.3628006173374,13.940425938259125,0.4874142389655044,-49.41147700029675
MOF_0397,Mn,C1=CC(=CC=C1C(=O)O)C(=O)O,Pyridine,83,27.14813658306785,CHCl3,mtn,2090.186898415802,18.336994719617223,0.5595749493320848,-42.236668529241015
MOF_0398,Dy,C1=CC(=C(C=C1C(=O)O)C(=O)O)O,No additive,83,34.26184508009233,DMF,mtn,3149.2229220182803,11.641901973424833,0.24730941834237527,-42.60550362357349
MOF_0399,Ni,C1=CC(=C(C=C1)C(=O)O)C(=O)O,Formic acid,125,16.03287867649911,MeOH,pcu,2793.3307421238633,9.978782886163359,0.3721421293472614,-51.330211948725015
MOF_0400,Cr,C1=C(C(=C(C(=C1Cl)Cl)Cl)Cl)C(=O)O,NaOH,66,36.404819683239204,MeOH,dia,2117.772257331039,17.724188788969375,0.3932193235852923,-41.58578563613388
MOF_0401,Cu,C1=C(C(=C(C(=C1Cl)Cl)Cl)Cl)C(=O)O,Pyridine,106,6.2729237130442055,H2O,bcu,1014.1426826102406,15.62114870181377,0.5376773211249508,-46.51615316415789
MOF_0402,Co,C1=CC(=CC=C1)C(=O)O,NaOH,136,6.168957681634323,DMF,mtn,2277.234376751164,19.13258630440332,0.36708947362567346,-45.228484557602755
MOF_0403,Cr,C1=CC(=C(C=C1)C(=O)O)C(=O)O,Pyridine,84,20.99665902640399,EtOH,bcu,1716.8970423223027,18.982072186279055,0.25738915973360404,-40.69186898003525
MOF_0404,Mn,C1=CC(=C(C=C1)C(=O)O)C(=O)O,HCl,78,19.552820450671707,DMF,cmo,1418.6002942274195,9.499544797524084,0.2989140445679301,-56.34574647127622
MOF_0405,Co,C1=C(C(=C(C(=C1Cl)Cl)Cl)Cl)C(=O)O,HCl,93,17.8878614761547,MeOH,cmo,1831.609725292623,10.598766932404104,0.30436868096251596,-50.28549897306565
MOF_0406,Fe,C1=CC(=CC=C1C(=O)O)C(=O)O,HCl,135,25.60486955743204,H2O,dia,2114.203677046923,7.351744214443234,0.7056169665336569,-50.98617341442789
MOF_0407,Tb,C1=CC(=CC=C1)C(=O)O,Formic acid,105,18.112277621709133,H2O,mtn,3512.1069435876084,14.23101411535565,0.3705918121869749,-42.836489186211146
MOF_0408,Fe,C1=CC(=C(C=C1)C(=O)O)C(=O)O,NaOH,84,12.459348412596045,EtOH,pcu,2602.5035603501306,9.197213491511071,0.6288150403488542,-45.65077112359958
MOF_0409,Cr,C1=C(C(=C(C(=C1Cl)Cl)Cl)Cl)C(=O)O,NaOH,114,17.61666015989844,H2O,mtn,3146.35434102182,16.36371099233041,0.5407032478035836,-40.34390161929395
MOF_0410,Mn,C1=CC(=C(C=C1)C(=O)O)C(=O)O,NaOH,66,46.89578800365034,H2O,bcu,1115.95704579507,5.066362932425479,0.7862232521698653,-50.51583631257143
MOF_0411,Dy,C1=CC(=CC=C1)C(=O)O,No additive,120,22.08899034777334,H2O,cmo,2190.042539829606,4.97884846981768,0.36369360132812134,-45.77430306076512
MOF_0412,Cr,C1=CC(=CC=C1)C(=O)O,NaOH,112,23.567362181766775,H2O,bcu,1673.9871780545682,6.475741484129747,0.2950238123175202,-44.635815688370066
MOF_0413,Cu,C1=CC(=C(C=C1C(=O)O)C(=O)O)O,No additive,90,29.36797955785016,H2O,dia,1781.375835235924,4.4329672034360295,0.23122270261673625,-46.71550760906048
MOF_0414,Al,C1=C(C(=C(C(=C1Cl)Cl)Cl)Cl)C(=O)O,HCl,74,47.26699381022597,MeOH,cmo,1858.5695507782248,13.54053733052999,0.3445757973687683,-46.94029200577873
MOF_0415,Cr,C1=CC(=CC=C1)C(=O)O,HCl,73,14.630456163173573,DMF,pcu,3314.6196154423305,5.504997022284557,0.6104425318492357,-48.446686062331665
MOF_0416,Tb,C1=CC(=C(C=C1C(=O)O)C(=O)O)O,Formic acid,116,33.976412863427086,CHCl3,cmo,1896.1382120009553,5.719369596950122,0.25115493478211637,-48.15264905123268
MOF_0417,Tb,C1=CC(=C(C=C1C(=O)O)C(=O)O)O,Pyridine,136,35.503326515835866,H2O,mtn,3281.4334429967157,3.241879803395822,0.3468211070897952,-40.47270253631544
MOF_0418,Cr,C1=CC(=C(C=C1)C(=O)O)C(=O)O,HCl,80,30.722274338894902,CHCl3,mtn,2873.7814766662177,16.295530248601366,0.7131850209104074,-46.5446268168105
MOF_0419,Co,C1=CC(=C(C=C1)C(=O)O)C(=O)O,Pyridine,113,7.897446944012339,CHCl3,cmo,2074.2017116066327,16.809032942199178,0.5497717696187122,-42.34470057553872
MOF_0420,Al,C1=CC(=C(C=C1C(=O)O)C(=O)O)O,Pyridine,37,33.782380136413366,MeOH,dia,2500.738060125371,5.754381078195475,0.2417129241519173,-40.86699795850245
MOF_0421,Cu,C1=CC(=C(C=C1)C(=O)O)C(=O)O,,82,6.820167285591721,H2O,mtn,2589.7482238107073,15.571915382542816,0.22860988654985798,-45.29653860419474
MOF_0422,Cr,C1=CC(=CC=C1)C(=O)O,Formic acid,99,30.230276580195465,CHCl3,mtn,3649.0628549394387,10.370267093675114,0.23667372519546015,-43.22431600595971
MOF_0423,Co,C1=CC(=CC=C1C(=O)O)C(=O)O,AcOH,72,36.541571797756674,H2O,pcu,2698.140234821347,7.073113010411653,0.7651250300883516,-53.86829512706534
MOF_0424,Tb,C1=CC(=CC=C1)C(=O)O,AcOH,71,13.282675187277817,EtOH,cmo,2138.2751735128695,13.56353833725509,0.709922857136633,-44.998542901318835
MOF_0425,Tb,C1=CC(=C(C=C1C(=O)O)C(=O)O)O,NH4OH,79,41.03136833188206,EtOH,mtn,3180.536092719842,6.034229263900442,0.706964025211265,-38.530885987423666
MOF_0426,Mn,C1=CC(=C(C=C1C(=O)O)C(=O)O)O,,108,5.335567443452188,EtOH,dia,2029.4935386415648,15.867021330101602,0.7545300573461275,-47.581615409123124
MOF_0427,Cr,C1=CC(=CC=C1)C(=O)O,Formic acid,94,41.127766000965465,CHCl3,bcu,1949.2232734133245,3.809458868699379,0.5031532341505462,-45.75521159886152
MOF_0428,Al,C1=CC(=C(C=C1)C(=O)O)C(=O)O,NH4OH,32,24.254478228281663,EtOH,cmo,1999.7898753222719,19.305225859774545,0.34840680268600643,-39.1045440816657
MOF_0429,Zn,C1=CC(=C(C=C1)C(=O)O)C(=O)O,NH4OH,36,13.573869356992358,MeOH,pcu,3208.35877906304,4.221879313046616,0.44080880254311094,-43.754047843349305
MOF_0430,Al,C1=CC(=C(C=C1C(=O)O)C(=O)O)O,,81,9.886238379734593,MeOH,mtn,2829.9224019306816,12.850623127227726,0.6313184437302866,-43.57003720667109
MOF_0431,Tb,C1=C(C(=C(C(=C1Cl)Cl)Cl)Cl)C(=O)O,AcOH,113,45.94551537362439,CHCl3,dia,2422.769970307241,18.337302932080433,0.7256197229127592,-48.44211368673925
MOF_0432,Tb,C1=CC(=C(C=C1)C(=O)O)C(=O)O,Formic acid,17,7.197285853570895,H2O,cmo,2343.657512052601,3.202375970413456,0.4610545560197146,-43.63090250640708
MOF_0433,Fe,C1=CC(=CC=C1)C(=O)O,AcOH,85,12.76011047718073,DMF,dia,2209.371232705872,11.47474583681397,0.5212285732292368,-50.22305134742922
MOF_0434,Tb,C1=CC(=C(C=C1)C(=O)O)C(=O)O,NH4OH,84,19.304183287054023,H2O,dia,2513.6647289716384,8.950118393281558,0.759069795965752,-39.49179622022879
MOF_0435,Cu,C1=CC(=CC=C1)C(=O)O,Formic acid,141,31.290333354289302,H2O,pcu,2549.3511581832963,12.865647234384454,0.2644991822656575,-51.60237335229412
MOF_0436,Ni,C1=CC(=C(C=C1C(=O)O)C(=O)O)O,NH4OH,88,27.97124775214833,H2O,cmo,1777.3192162269902,6.832775574540198,0.7173795301844745,-44.81483223443515
MOF_0437,Cr,C1=CC(=C(C=C1)C(=O)O)C(=O)O,NaOH,111,9.528313666141816,H2O,mtn,2923.7069158035083,4.103286692939321,0.29558448935116155,-39.97483734139752
MOF_0438,Al,C1=CC(=CC=C1)C(=O)O,,104,16.748031284481442,DMF,pcu,2934.766828845979,13.640861626428018,0.49031681017437223,-45.887611964958765
MOF_0439,Ni,C1=CC(=C(C=C1C(=O)O)C(=O)O)O,Pyridine,36,14.50507792778506,EtOH,mtn,2486.985150205784,10.086437071387842,0.33105387719783574,-39.40800055717427
MOF_0440,Co,C1=C(C(=C(C(=C1Cl)Cl)Cl)Cl)C(=O)O,Formic acid,123,13.39588559757502,H2O,bcu,899.5014932942619,13.582254158005904,0.5617685784143626,-53.102260461151914
MOF_0441,Zn,C1=CC(=CC=C1)C(=O)O,Formic acid,106,22.09035080511943,MeOH,dia,2322.2153432741948,6.57916549624333,0.5351440530249597,-48.657368802377384
MOF_0442,Cu,C1=C(C(=C(C(=C1Cl)Cl)Cl)Cl)C(=O)O,Pyridine,115,34.9773839140329,CHCl3,bcu,1425.3888393482575,8.758601470209191,0.42800441854445115,-43.95793771042385
MOF_0443,Al,C1=C(C(=C(C(=C1Cl)Cl)Cl)Cl)C(=O)O,NH4OH,217,13.56792901755838,CHCl3,dia,2239.439288272828,12.548583619198375,0.7179821089070746,-43.280228668463224
MOF_0444,Ni,C1=CC(=CC=C1C(=O)O)C(=O)O,NaOH,37,20.133870706931184,MeOH,pcu,2587.5763682879924,13.082917231520364,0.595887992172836,-47.506343496104215
MOF_0445,Zn,C1=CC(=C(C=C1)C(=O)O)C(=O)O,No additive,151,21.20036678101114,H2O,mtn,2776.13581906672,9.329351732162507,0.6327230749771663,-46.117787014768645
MOF_0446,Fe,C1=CC(=CC=C1)C(=O)O,Pyridine,91,46.964087295158045,DMF,mtn,2502.1745244905314,7.760904495481459,0.29039584292460113,-45.59208526458739
MOF_0447,Cu,C1=C(C(=C(C(=C1Cl)Cl)Cl)Cl)C(=O)O,,108,46.00531970267903,EtOH,pcu,2736.914525499659,7.65291070130613,0.7298994067853706,-54.49654903686782
MOF_0448,Cu,C1=CC(=CC=C1C(=O)O)C(=O)O,AcOH,98,39.20605364109134,CHCl3,cmo,1570.121013922897,5.969888974155273,0.30022409817201107,-50.69689582899714
MOF_0449,Fe,C1=CC(=C(C=C1C(=O)O)C(=O)O)O,NH4OH,87,14.632992516044148,EtOH,bcu,1447.4904306577237,8.531884359602982,0.33367097852597616,-45.22835712994632
MOF_0450,Cr,C1=CC(=CC=C1)C(=O)O,Pyridine,82,6.993641820033466,DMF,bcu,1618.8542829330515,6.390485729224739,0.27683308309812826,-39.96136676520589
MOF_0451,Fe,C1=C(C(=C(C(=C1Cl)Cl)Cl)Cl)C(=O)O,Pyridine,109,17.943782059707488,CHCl3,mtn,2589.4942655017503,13.774861905909061,0.4642155247812894,-40.09036173560911
MOF_0452,Cu,C1=CC(=C(C=C1)C(=O)O)C(=O)O,Formic acid,54,15.738960175088557,EtOH,mtn,2575.6985246875274,12.674138970115523,0.732625539051386,-47.107737222126474
MOF_0453,Cu,C1=CC(=CC=C1C(=O)O)C(=O)O,AcOH,122,26.260735206441332,DMF,mtn,2676.219968586302,9.504010002405641,0.35146851176591576,-48.90338366765591
MOF_0454,Ni,C1=C(C(=C(C(=C1Cl)Cl)Cl)Cl)C(=O)O,AcOH,87,38.2200280429829,EtOH,pcu,2535.0461709664205,8.539110338935707,0.424252052253772,-52.51503774594405
MOF_0455,Tb,C1=CC(=C(C=C1)C(=O)O)C(=O)O,,66,41.76620931066975,H2O,cmo,2095.0946583291916,7.039441403308923,0.7076398520452534,-42.22871333678779
MOF_0456,Zn,C1=C(C(=C(C(=C1Cl)Cl)Cl)Cl)C(=O)O,AcOH,86,41.17401975806237,DMF,bcu,1603.8860821028381,12.102791252308801,0.5706891678553336,-48.36852997880031
MOF_0457,Fe,C1=CC(=CC=C1)C(=O)O,Pyridine,137,19.825724693814983,EtOH,dia,1833.227223598686,18.6213469938767,0.6509698361877663,-43.18193020041362
MOF_0458,Zn,C1=CC(=CC=C1)C(=O)O,No additive,83,34.23831111227005,H2O,pcu,3195.3088950307615,14.656951873611932,0.3284000296616689,-48.885461607704016
MOF_0459,Fe,C1=CC(=CC=C1)C(=O)O,HCl,110,17.76470469106568,H2O,bcu,1836.2902661311978,15.655050138604645,0.6298939179995453,-51.357995216958315
MOF_0460,Co,C1=CC(=CC=C1C(=O)O)C(=O)O,NH4OH,78,6.67984390234804,DMF,cmo,1638.380861867491,17.184423682158933,0.3365663471850635,-44.3022801872154
MOF_0461,Cu,C1=CC(=CC=C1)C(=O)O,HCl,122,34.86887168652946,MeOH,pcu,2665.760918259194,8.977794546743429,0.7923883893263968,-55.533864302841
MOF_0462,Tb,C1=CC(=C(C=C1)C(=O)O)C(=O)O,Pyridine,120,4.432412313070666,CHCl3,bcu,1637.3987676809306,4.06888829594629,0.5359316936760424,-39.29911647423243
MOF_0463,Ni,C1=C(C(=C(C(=C1Cl)Cl)Cl)Cl)C(=O)O,HCl,155,22.004033848173496,DMF,pcu,2764.1211509598606,13.583499656467952,0.6173835548258823,-54.54859623490819
MOF_0464,Tb,C1=CC(=C(C=C1C(=O)O)C(=O)O)O,Pyridine,94,18.492687849291332,H2O,bcu,1782.1557053299625,6.2074289508765546,0.27104095048490173,-41.739541558805726
MOF_0465,Tb,C1=CC(=C(C=C1)C(=O)O)C(=O)O,HCl,120,34.50861169482951,H2O,bcu,1361.8677595358295,12.673742049926327,0.35039358802494175,-48.027875203455544
MOF_0466,Tb,C1=CC(=C(C=C1)C(=O)O)C(=O)O,AcOH,102,37.714800801456676,DMF,cmo,1842.7757899531678,15.5716739636701,0.28384439573861264,-46.21307565429677
MOF_0467,Zn,C1=CC(=CC=C1)C(=O)O,NaOH,138,17.38016398273649,MeOH,dia,2301.4625699783373,16.321851136513224,0.4341024291630339,-40.378800895291434
MOF_0468,Fe,C1=CC(=CC=C1C(=O)O)C(=O)O,AcOH,78,39.711588635573555,CHCl3,cmo,1680.9956460240498,8.131265044207762,0.37048151852323913,-48.96608365536505
MOF_0469,Dy,C1=C(C(=C(C(=C1Cl)Cl)Cl)Cl)C(=O)O,AcOH,122,16.932337462217085,EtOH,bcu,1491.7764185520957,11.711364953678357,0.6397533557783417,-46.29607547186464
MOF_0470,Co,C1=CC(=CC=C1C(=O)O)C(=O)O,,94,23.638359839408693,DMF,pcu,3060.0520360576033,13.55640663671227,0.26522538777689075,-48.354901648865855
MOF_0471,Al,C1=C(C(=C(C(=C1Cl)Cl)Cl)Cl)C(=O)O,Formic acid,98,35.98881518862189,CHCl3,cmo,1730.057346748404,16.931172268910572,0.651235621070221,-48.73126616846657
MOF_0472,Tb,C1=C(C(=C(C(=C1Cl)Cl)Cl)Cl)C(=O)O,Formic acid,102,34.488490085890696,CHCl3,dia,2471.155424399386,15.943607306784106,0.2274228947831525,-45.17110194894694
MOF_0473,Cr,C1=CC(=CC=C1C(=O)O)C(=O)O,HCl,107,47.4442127817368,H2O,bcu,1615.6961777142055,19.795580456615294,0.32121070239343547,-49.34774774033618
MOF_0474,Zn,C1=CC(=C(C=C1)C(=O)O)C(=O)O,Pyridine,96,13.907085065501002,EtOH,cmo,1584.2622398098883,3.137439501010185,0.6751789951787619,-43.17846229308446
MOF_0475,Ni,C1=C(C(=C(C(=C1Cl)Cl)Cl)Cl)C(=O)O,,106,33.141988195741625,DMF,cmo,1620.9909604360867,10.437320494673262,0.645665984664737,-48.10051601420196
MOF_0476,Al,C1=CC(=CC=C1C(=O)O)C(=O)O,AcOH,147,30.826003964134205,H2O,cmo,1968.421376699884,7.352756268394174,0.4857956683513181,-48.302711588658504
MOF_0477,Dy,C1=C(C(=C(C(=C1Cl)Cl)Cl)Cl)C(=O)O,,129,44.264331997561314,H2O,cmo,1976.4647936340743,5.038187581462848,0.22998962904653109,-45.070980519149415
MOF_0478,Cr,C1=CC(=C(C=C1C(=O)O)C(=O)O)O,HCl,126,10.879934232374502,MeOH,pcu,3232.761547122104,18.495760578842138,0.5659362450015797,-48.89663938616909
MOF_0479,Dy,C1=CC(=C(C=C1)C(=O)O)C(=O)O,Formic acid,86,37.07911919782505,CHCl3,dia,2650.0974085525227,19.965355123626665,0.4440344623844591,-43.9787597359833
MOF_0480,Al,C1=CC(=CC=C1)C(=O)O,NaOH,73,29.003819115825806,DMF,dia,1914.9723468673224,6.070135534380302,0.3899168901187819,-40.88497585705398
MOF_0481,Tb,C1=C(C(=C(C(=C1Cl)Cl)Cl)Cl)C(=O)O,NH4OH,128,16.08529827066784,DMF,bcu,1510.999229950456,3.653367677623181,0.5842463820959206,-40.018289461010426
MOF_0482,Cr,C1=CC(=C(C=C1C(=O)O)C(=O)O)O,HCl,126,24.87513622247566,DMF,mtn,3122.686979306476,7.675925610568506,0.4619687373210358,-47.38567906431339
MOF_0483,Dy,C1=CC(=CC=C1)C(=O)O,,144,18.686170271071102,H2O,pcu,3344.6522546019764,17.19265260712873,0.2554526602719072,-43.600530603823906
MOF_0484,Ni,C1=CC(=CC=C1)C(=O)O,NaOH,81,29.48978972269228,MeOH,bcu,1211.7941872541096,7.996131414388385,0.7495702823074066,-45.633075056980424
MOF_0485,Fe,C1=C(C(=C(C(=C1Cl)Cl)Cl)Cl)C(=O)O,NH4OH,93,43.1160268758453,EtOH,bcu,1605.3385092392336,3.9673251684595665,0.6670958596720274,-45.51472927107962
MOF_0486,Cu,C1=CC(=CC=C1C(=O)O)C(=O)O,No additive,50,29.049419314136887,H2O,cmo,1493.3351435924637,3.892367127201508,0.23382691477433148,-47.15704338597389
MOF_0487,Fe,C1=C(C(=C(C(=C1Cl)Cl)Cl)Cl)C(=O)O,HCl,88,31.795786406369697,EtOH,mtn,3055.835650222765,10.26618764028042,0.5150383221144175,-48.13025879257819
MOF_0488,Al,C1=CC(=C(C=C1C(=O)O)C(=O)O)O,HCl,129,26.824905273047214,MeOH,mtn,2589.0974844222164,18.841037292047535,0.250026537739177,-48.62730179060911
MOF_0489,Zn,C1=CC(=CC=C1)C(=O)O,No additive,86,6.25128228360094,CHCl3,pcu,2557.6012333555864,7.860647507873743,0.702373915435091,-46.58663562543942
MOF_0490,Cu,C1=C(C(=C(C(=C1Cl)Cl)Cl)Cl)C(=O)O,No additive,119,14.245776502548146,DMF,mtn,2695.7872322936914,10.261680571917744,0.5678083766311832,-49.00053595267912
MOF_0491,Co,C1=CC(=CC=C1C(=O)O)C(=O)O,HCl,94,25.648076095011643,EtOH,bcu,1183.2097481255903,4.732874691504345,0.3034694801438411,-49.26950472009418
MOF_0492,Ni,C1=C(C(=C(C(=C1Cl)Cl)Cl)Cl)C(=O)O,No additive,109,17.650352484767012,H2O,mtn,2270.585282345401,11.390737485572679,0.21244480568372048,-45.23978829932147
MOF_0493,Co,C1=CC(=C(C=C1)C(=O)O)C(=O)O,AcOH,65,11.997598301492545,EtOH,mtn,2772.9466547639354,14.841300092856969,0.21894860728785237,-45.9099239151124
MOF_0494,Cr,C1=CC(=CC=C1C(=O)O)C(=O)O,NH4OH,102,26.181845044411286,CHCl3,dia,2320.5462827907077,7.6095561400127325,0.5044192832388978,-40.0763662147748
MOF_0495,Cu,C1=CC(=C(C=C1C(=O)O)C(=O)O)O,NH4OH,10,18.203630911705414,DMF,bcu,1532.0723631729809,8.044092244987642,0.6406240872060645,-44.80530403213576
MOF_0496,Co,C1=CC(=CC=C1)C(=O)O,NH4OH,94,15.356736299630247,EtOH,mtn,2453.917611449508,17.31357543190661,0.27250427080037554,-43.70896116238882
MOF_0497,Co,C1=C(C(=C(C(=C1Cl)Cl)Cl)Cl)C(=O)O,AcOH,51,24.415358367376754,CHCl3,mtn,2648.5063043950613,3.1761832799020104,0.33277043954897456,-49.08627376938667
MOF_0498,Dy,C1=CC(=CC=C1C(=O)O)C(=O)O,Pyridine,136,9.864507355615618,H2O,cmo,1967.7155040043158,13.82000204535165,0.3963559671017194,-38.79417559621407
MOF_0499,Fe,C1=CC(=C(C=C1)C(=O)O)C(=O)O,No additive,123,44.82081225531792,MeOH,mtn,2476.0375448259424,9.696038794007489,0.3308460692366918,-46.3605524401927
MOF_0500,Dy,C1=CC(=CC=C1C(=O)O)C(=O)O,NaOH,114,42.178892308446514,H2O,mtn,3566.120271506943,8.072468730544973,0.43480193761229524,-39.801271889612885
MOF_0501,Cu,C1=CC(=C(C=C1)C(=O)O)C(=O)O,No additive,145,35.13530577258355,DMF,dia,2203.292435271965,14.179095148145912,0.5357690034590458,-49.58341458839858
MOF_0502,Cu,C1=CC(=C(C=C1C(=O)O)C(=O)O)O,HCl,71,8.673408413892073,H2O,bcu,1204.671863413464,17.18936487042499,0.6109620489447856,-50.98381654803625
MOF_0503,Al,C1=CC(=CC=C1)C(=O)O,Formic acid,152,38.13859919666649,H2O,pcu,3114.3207926371124,12.492665977587453,0.7782651093243371,-52.33121005734441
MOF_0504,Dy,C1=CC(=C(C=C1C(=O)O)C(=O)O)O,,127,39.55012243679683,H2O,bcu,2020.2453596822559,3.5286085730319523,0.7585062018099169,-46.78874013789778
MOF_0505,Mn,C1=C(C(=C(C(=C1Cl)Cl)Cl)Cl)C(=O)O,,92,37.78164317943086,H2O,cmo,1332.3559169876955,10.843820244034793,0.5420761848973488,-50.39506930743444
MOF_0506,Fe,C1=CC(=CC=C1C(=O)O)C(=O)O,NH4OH,134,9.014499033246612,DMF,bcu,1238.1783926383823,10.866918995197542,0.6404900338738129,-46.2307204425459
MOF_0507,Cu,C1=CC(=C(C=C1)C(=O)O)C(=O)O,No additive,66,32.33195011098165,CHCl3,mtn,2614.0120944609707,12.244574411678334,0.7705233227752568,-44.49029355877536
MOF_0508,Al,C1=CC(=C(C=C1)C(=O)O)C(=O)O,NaOH,75,40.710291012973535,EtOH,cmo,2344.098912052244,14.406301317740388,0.25008316672484293,-45.83305962250439
MOF_0509,Dy,C1=CC(=CC=C1C(=O)O)C(=O)O,HCl,81,29.40354965366538,MeOH,bcu,1735.7663103734897,3.3284128600837875,0.2033808559168575,-47.88972384616337
MOF_0510,Fe,C1=CC(=CC=C1C(=O)O)C(=O)O,AcOH,84,32.44192451003592,EtOH,cmo,1919.9622478973401,11.534214614795758,0.21787985823774997,-49.60357665138864
MOF_0511,Dy,C1=C(C(=C(C(=C1Cl)Cl)Cl)Cl)C(=O)O,Pyridine,68,24.16799309475747,EtOH,pcu,3246.512048742266,13.001232079470043,0.5380096174237784,-38.3400978929863
MOF_0512,Co,C1=CC(=C(C=C1C(=O)O)C(=O)O)O,AcOH,136,27.263122074898316,MeOH,bcu,1452.2104683872067,8.837007569072883,0.6577000551815206,-53.74430744286273
MOF_0513,Al,C1=CC(=C(C=C1)C(=O)O)C(=O)O,NaOH,92,5.5125817674759094,DMF,mtn,2868.0770576296877,14.362208852037362,0.4202449704470208,-42.03950564924316
MOF_0514,Fe,C1=C(C(=C(C(=C1Cl)Cl)Cl)Cl)C(=O)O,HCl,110,32.11437296682452,MeOH,cmo,2083.3250157253497,6.879021191195909,0.5271435048365712,-50.47122066128359
MOF_0515,Tb,C1=CC(=C(C=C1C(=O)O)C(=O)O)O,NH4OH,82,7.5836773672110045,DMF,dia,2783.7381688826267,8.395329662146677,0.5098197911291222,-39.0218968526516
MOF_0516,Cr,C1=C(C(=C(C(=C1Cl)Cl)Cl)Cl)C(=O)O,No additive,45,23.14064215096983,EtOH,cmo,2435.8833473702725,19.366840906213543,0.2568625349552118,-44.138229232248406
MOF_0517,Cr,C1=CC(=C(C=C1)C(=O)O)C(=O)O,HCl,108,16.876824297365943,DMF,dia,2280.9021421805182,8.917196304639383,0.3929529585344294,-46.0973993741711
MOF_0518,Fe,C1=CC(=CC=C1C(=O)O)C(=O)O,,42,27.998829809315374,CHCl3,mtn,2667.0996414811884,8.890515085217665,0.2116610931093812,-43.19717517987578