mof_name,metal,linker_smiles,surface_func_group,temperature_celsius,reaction_time_hours,solvent,topology,surface_area_m2g,pore_diameter_angstrom,void_fraction,formation_energy_kJ_mol
MOF_0649,Cu,C1=C(C(=C(C(=C1Cl)Cl)Cl)Cl)C(=O)O,HCl,125,8.648615199752951,EtOH,mtn,2552.175242715978,9.518868187310773,0.3776567701480227,-49.48115454655249
MOF_0650,Cu,C1=CC(=C(C=C1)C(=O)O)C(=O)O,NH4OH,149,39.76544274761734,EtOH,cmo,1431.0231534832299,8.328027202512391,0.5009471899438738,-49.17131064399016
MOF_0651,Zn,C1=C(C(=C(C(=C1Cl)Cl)Cl)Cl)C(=O)O,Pyridine,132,29.46528495983997,MeOH,bcu,1873.023953371028,9.46998231326204,0.7199649373574954,-48.29662728097358
MOF_0652,Dy,C1=CC(=CC=C1)C(=O)O,NH4OH,78,31.204540924603673,DMF,mtn,3002.225985521471,3.315319327314927,0.6768376044417672,-38.19821654674918
MOF_0653,Fe,C1=CC(=CC=C1C(=O)O)C(=O)O,,110,38.384331905207205,MeOH,dia,2044.5292241026907,15.319972677525488,0.777644351634107,-46.46342569700971
MOF_0654,Cu,C1=CC(=CC=C1)C(=O)O,Pyridine,61,34.94419802022787,DMF,mtn,3040.9424581958715,8.94613176721633,0.24313167371132222,-45.22040543456251
MOF_0655,Cr,C1=CC(=C(C=C1)C(=O)O)C(=O)O,HCl,117,40.71616312566825,H2O,mtn,3159.1076309021823,8.326504660805458,0.3609956413786032,-45.46338032561672
MOF_0656,Co,C1=CC(=CC=C1)C(=O)O,,113,6.473411840234653,EtOH,bcu,974.797040443598,13.168398111299059,0.24812462468823562,-49.12357318444442
MOF_0657,Mn,C1=CC(=CC=C1)C(=O)O,NH4OH,43,36.89090801684621,DMF,dia,1815.3415565254027,10.416248499066878,0.6506475163414618,-47.07843101233838
MOF_0658,Cu,C1=CC(=CC=C1)C(=O)O,AcOH,65,41.4375213221722,CHCl3,dia,1907.6481074981882,19.674337259806276,0.2845002134902302,-52.34414806163084
MOF_0659,Cr,C1=CC(=C(C=C1)C(=O)O)C(=O)O,NH4OH,91,16.58994186816583,CHCl3,pcu,3337.7033753128344,9.056301729279623,0.25993179079856404,-42.09265779626263
MOF_0660,Cr,C1=CC(=CC=C1)C(=O)O,No additive,90,32.17968005570313,EtOH,pcu,3291.1114056277424,13.436229317534528,0.5370033242597345,-50.044591107998976
MOF_0661,Mn,C1=C(C(=C(C(=C1Cl)Cl)Cl)Cl)C(=O)O,Formic acid,63,17.82313080882677,MeOH,pcu,2659.170099566719,8.29806871036408,0.44689082727149515,-54.76441458153004
MOF_0662,Fe,C1=CC(=C(C=C1)C(=O)O)C(=O)O,NaOH,111,46.15072692522798,MeOH,bcu,1119.389149841613,19.840114663581165,0.6290608032574803,-47.13013688453917
MOF_0663,Cr,C1=CC(=CC=C1)C(=O)O,AcOH,107,5.470637187162165,DMF,mtn,2970.4193919628997,10.566887590242178,0.49220923502016384,-44.21551554707149
MOF_0664,Co,C1=CC(=C(C=C1)C(=O)O)C(=O)O,No additive,94,29.51088512865002,MeOH,dia,2086.36872640638,13.78018978473565,0.4552007575642717,-49.138516742453966
MOF_0665,Cr,C1=CC(=C(C=C1C(=O)O)C(=O)O)O,Pyridine,77,11.326156070178664,EtOH,dia,2267.571638512685,5.15426840619551,0.45530026924818257,-36.92679673154982
MOF_0666,Cr,C1=C(C(=C(C(=C1Cl)Cl)Cl)Cl)C(=O)O,Formic acid,131,35.33768902779498,DMF,mtn,3299.18871669159,15.461411652682187,0.7231258282393129,-47.80648418795387
MOF_0667,Cr,C1=CC(=CC=C1)C(=O)O,HCl,149,11.739172470421131,H2O,dia,2271.5726314930475,7.576570983885574,0.4371353904334799,-47.629779679507436
MOF_0668,Tb,C1=CC(=C(C=C1C(=O)O)C(=O)O)O,AcOH,85,14.356863523527732,MeOH,mtn,3164.6658178673324,10.626425298104422,0.40003827666178016,-44.679236504329126
MOF_0669,Tb,C1=CC(=C(C=C1C(=O)O)C(=O)O)O,NaOH,81,25.752315686013354,MeOH,bcu,1659.0086069781555,18.013262059566785,0.40312104621363765,-43.16321302282003
MOF_0670,Fe,C1=CC(=C(C=C1)C(=O)O)C(=O)O,Formic acid,114,44.252737799862636,DMF,bcu,1222.0638252865353,19.499392753046724,0.3179604780889342,-52.535632951789104
MOF_0671,Cu,C1=CC(=C(C=C1C(=O)O)C(=O)O)O,Pyridine,89,13.315432374510717,CHCl3,bcu,1362.0981990423152,10.21772573128607,0.7164133103443937,-45.53356937603117
MOF_0672,Cr,C1=C(C(=C(C(=C1Cl)Cl)Cl)Cl)C(=O)O,,95,10.346560929196555,MeOH,mtn,2817.6135690231845,17.1916453552265,0.287978489016549,-42.0235992981435
MOF_0673,Dy,C1=C(C(=C(C(=C1Cl)Cl)Cl)Cl)C(=O)O,,122,37.394980601577345,EtOH,mtn,3131.2777546450793,3.906932907347633,0.7451664426797633,-42.83263976641193
MOF_0674,Cu,C1=CC(=CC=C1C(=O)O)C(=O)O,NaOH,42,26.027259422692964,MeOH,cmo,1626.054830899061,17.408758506434463,0.3700806331466038,-43.763327284666836
MOF_0675,Fe,C1=C(C(=C(C(=C1Cl)Cl)Cl)Cl)C(=O)O,HCl,139,44.11854494479794,H2O,dia,1804.5323621853286,13.701675476595044,0.7396560933043081,-52.08454766541554
MOF_0676,Al,C1=CC(=C(C=C1C(=O)O)C(=O)O)O,HCl,102,10.45104051503306,MeOH,dia,2434.7003281841044,11.308004862657233,0.6744923940887464,-46.27463298398531
MOF_0677,Cu,C1=C(C(=C(C(=C1Cl)Cl)Cl)Cl)C(=O)O,Pyridine,87,32.42082729301373,CHCl3,cmo,1672.0749337018922,18.129382987333212,0.5491925125702153,-44.88795747851963
MOF_0678,Cu,C1=CC(=C(C=C1)C(=O)O)C(=O)O,AcOH,97,14.246682430679861,MeOH,cmo,1726.400155257745,17.370732782609036,0.6016820023511595,-50.35298839009649
MOF_0679,Ni,C1=CC(=CC=C1C(=O)O)C(=O)O,Pyridine,98,10.89745886067213,DMF,bcu,1320.4938152280106,8.048066631210723,0.3955064544949567,-43.08800608991467
MOF_0680,Zn,C1=CC(=C(C=C1C(=O)O)C(=O)O)O,NH4OH,48,34.07089426691991,MeOH,cmo,1569.8632837416449,16.455302499860878,0.5445371685965975,-45.1239526986435
MOF_0681,Ni,C1=CC(=CC=C1C(=O)O)C(=O)O,HCl,144,30.12212327598426,CHCl3,mtn,2463.985429617505,4.691345872260334,0.3754417404360183,-49.1950062733456
MOF_0682,Co,C1=CC(=C(C=C1C(=O)O)C(=O)O)O,Formic acid,101,37.21240816794258,DMF,pcu,2884.619416729885,16.98698690294529,0.441363688334277,-53.4488515272229
MOF_0683,Tb,C1=CC(=C(C=C1)C(=O)O)C(=O)O,NH4OH,113,17.616353363632022,EtOH,mtn,2897.9382421067476,14.482745506395258,0.6587975331375469,-40.83232666686793
MOF_0684,Tb,C1=CC(=CC=C1C(=O)O)C(=O)O,,128,23.710752880816358,DMF,cmo,1793.8347966824113,4.493727625843027,0.34635953828612975,-43.33186759975734
MOF_0685,Zn,C1=CC(=CC=C1)C(=O)O,,69,21.840753758538412,H2O,dia,2150.783122809778,14.612362949060302,0.7033076095025228,-45.36013165876413
MOF_0686,Mn,C1=CC(=C(C=C1C(=O)O)C(=O)O)O,No additive,114,47.29993641452663,DMF,mtn,2305.7340929935344,12.868827703498292,0.42552971219899793,-48.82875467312896
MOF_0687,Mn,C1=CC(=CC=C1)C(=O)O,NaOH,91,16.85895409653307,EtOH,dia,1866.7672330762468,13.107351719465761,0.5193019765137086,-49.981620598201275
MOF_0688,Fe,C1=CC(=CC=C1C(=O)O)C(=O)O,NH4OH,125,16.971958487257744,MeOH,mtn,2601.6604108592105,7.944686897204876,0.7651762925377241,-42.009473825977445
MOF_0689,Zn,C1=CC(=CC=C1)C(=O)O,NaOH,36,19.600121188458726,DMF,dia,2231.9999091594377,7.53045240021837,0.608753378112125,-38.06486779279153
MOF_0690,Cu,C1=CC(=CC=C1)C(=O)O,Pyridine,97,28.842139576774148,DMF,mtn,2764.3636038898717,15.963096904918341,0.5873624677067765,-43.14360419842491
MOF_0691,Mn,C1=CC(=CC=C1C(=O)O)C(=O)O,NH4OH,81,15.10220074760479,DMF,dia,1977.6776777194714,7.365829177293065,0.6269646365630175,-45.520442521693575
MOF_0692,Cr,C1=CC(=C(C=C1)C(=O)O)C(=O)O,Pyridine,112,44.272757376688055,DMF,pcu,3311.230330867284,10.586458280768277,0.750866803256337,-44.895574401893974
MOF_0693,Dy,C1=CC(=CC=C1)C(=O)O,No additive,114,15.690164854115594,EtOH,bcu,1503.6576906108453,14.81141297617934,0.34910822553290655,-43.98111392534828
MOF_0694,Cu,C1=CC(=CC=C1)C(=O)O,HCl,78,43.41589218864856,CHCl3,mtn,2375.6026824448923,4.353476272566442,0.5679447234796031,-50.9369534066674
MOF_0695,Co,C1=CC(=C(C=C1)C(=O)O)C(=O)O,,78,8.552902800449726,CHCl3,pcu,2928.346835809369,13.107322504398173,0.4402363126301914,-47.76630751843206
MOF_0696,Cr,C1=CC(=CC=C1)C(=O)O,No additive,96,32.8887589055847,DMF,bcu,1556.3029212283368,13.019398335017993,0.20711317592614636,-43.730765844965816
MOF_0697,Cr,C1=CC(=CC=C1)C(=O)O,,73,43.907362811282724,EtOH,mtn,2886.449574301258,14.631888085096433,0.27518053784366553,-41.643809699741716
MOF_0698,Zn,C1=CC(=CC=C1)C(=O)O,HCl,125,11.424975289522099,EtOH,pcu,3419.606623755759,9.288777620196196,0.39499513715815304,-52.08324819749392
MOF_0699,Fe,C1=C(C(=C(C(=C1Cl)Cl)Cl)Cl)C(=O)O,Pyridine,88,46.60638624436722,DMF,pcu,3154.8918747853354,10.632656159085276,0.5389999827091495,-48.513532565834964
MOF_0700,Co,C1=CC(=C(C=C1)C(=O)O)C(=O)O,HCl,12,23.926867858282513,H2O,pcu,2735.109316173429,8.609478337059791,0.7288848660177631,-52.2986716609495
MOF_0701,Mn,C1=CC(=CC=C1)C(=O)O,,88,45.611464771405075,DMF,cmo,1313.4670996862521,16.73886020220919,0.6746684709208638,-50.53160308709065
MOF_0702,Zn,C1=CC(=C(C=C1)C(=O)O)C(=O)O,,68,33.780081919722065,H2O,dia,2344.6717694545896,5.220382920614252,0.5320002034536624,-47.27690313667891
MOF_0703,Mn,C1=CC(=C(C=C1C(=O)O)C(=O)O)O,NaOH,51,17.26982227443627,DMF,bcu,1176.9864003341752,19.37021721078061,0.2443222507444806,-45.50308828697279
MOF_0704,Zn,C1=CC(=C(C=C1C(=O)O)C(=O)O)O,Formic acid,62,12.285311096352682,H2O,dia,2377.70655256241,13.792214651646695,0.3715437742369872,-45.75063612058276
MOF_0705,Zn,C1=CC(=CC=C1)C(=O)O,No additive,103,17.36434203390437,H2O,dia,2102.1893178474747,18.07741431466699,0.4200251887353464,-47.25110404310965
MOF_0706,Zn,C1=CC(=C(C=C1)C(=O)O)C(=O)O,NH4OH,139,8.0927660075577,DMF,dia,2529.0791135790514,10.245934790500993,0.5730303111223056,-45.60346138137228
MOF_0707,Fe,C1=CC(=C(C=C1)C(=O)O)C(=O)O,,109,10.330190519106509,H2O,pcu,2746.2516737208307,8.648744196663944,0.23895417378790468,-47.86973166000228
MOF_0708,Zn,C1=CC(=C(C=C1)C(=O)O)C(=O)O,No additive,81,8.60505937524517,MeOH,dia,2672.9466969207197,18.31233877210772,0.5181161327002841,-47.26526733322175
MOF_0709,Al,C1=C(C(=C(C(=C1Cl)Cl)Cl)Cl)C(=O)O,NaOH,113,22.60951592462854,CHCl3,cmo,1929.0115569759364,4.680841490897148,0.7408787456868244,-43.5145770506503
MOF_0710,Dy,C1=CC(=C(C=C1C(=O)O)C(=O)O)O,HCl,86,39.0054485553338,EtOH,mtn,3496.8611268108875,4.990822935589723,0.6232596174184417,-46.034551630932896
MOF_0711,Mn,C1=CC(=C(C=C1)C(=O)O)C(=O)O,NaOH,79,10.220876385518968,H2O,pcu,2441.9799281980263,8.088895200239515,0.6782460839376538,-47.141077617404854
MOF_0712,Cu,C1=CC(=C(C=C1)C(=O)O)C(=O)O,AcOH,65,9.734099059582778,H2O,bcu,1087.7299495983639,19.316174690027413,0.6090053890154441,-49.81935712341785
MOF_0713,Ni,C1=C(C(=C(C(=C1Cl)Cl)Cl)Cl)C(=O)O,AcOH,47,32.310873778762556,EtOH,mtn,2002.755439128621,13.76216636770682,0.32395346730355534,-49.0374574189956
MOF_0714,Co,C1=C(C(=C(C(=C1Cl)Cl)Cl)Cl)C(=O)O,NH4OH,88,12.676051206594916,H2O,mtn,2831.3207676160064,12.421292842461769,0.2662902920396112,-41.311852882881816
MOF_0715,Tb,C1=CC(=C(C=C1)C(=O)O)C(=O)O,NaOH,104,8.294841676795631,EtOH,mtn,3149.6027819952087,14.99105771804215,0.6976944038029455,-39.678940965825035
MOF_0716,Fe,C1=CC(=CC=C1C(=O)O)C(=O)O,Pyridine,97,11.341337441045416,DMF,dia,1840.4849098956583,10.097067453328826,0.6173026616093171,-42.22862096480348
MOF_0717,Cu,C1=CC(=C(C=C1)C(=O)O)C(=O)O,NH4OH,87,44.64418141857815,MeOH,dia,2243.6406102171713,15.887249524153587,0.545036935289821,-45.66301955654586
MOF_0718,Cr,C1=CC(=C(C=C1)C(=O)O)C(=O)O,Pyridine,71,40.1447351221524,MeOH,pcu,3531.1988033521657,9.684921865538918,0.3135697189809476,-39.80498631459886
MOF_0719,Al,C1=C(C(=C(C(=C1Cl)Cl)Cl)Cl)C(=O)O,NH4OH,118,19.57884074362414,CHCl3,dia,2586.477168074107,17.048174142559898,0.5620069791870521,-42.26803766623822
MOF_0720,Tb,C1=C(C(=C(C(=C1Cl)Cl)Cl)Cl)C(=O)O,AcOH,60,32.856113762405286,H2O,dia,2196.0427943114287,7.544016395300577,0.21879307113329588,-48.10066008988329
MOF_0721,Ni,C1=CC(=C(C=C1)C(=O)O)C(=O)O,NH4OH,123,27.640129641393674,CHCl3,dia,2185.2822602091505,7.718293208066412,0.27130348063637566,-45.66407673378173
MOF_0722,Cu,C1=CC(=C(C=C1)C(=O)O)C(=O)O,AcOH,69,33.79346759323281,DMF,pcu,2776.8083951351086,11.880516192254499,0.38713408988265474,-52.212606585574285
MOF_0723,Tb,C1=CC(=C(C=C1)C(=O)O)C(=O)O,,77,34.03753070836141,MeOH,pcu,3645.5246074615156,10.322939692149497,0.46624296644669866,-46.417978475664064
MOF_0724,Cu,C1=C(C(=C(C(=C1Cl)Cl)Cl)Cl)C(=O)O,HCl,55,31.66429666263969,DMF,cmo,1728.5462329088764,14.017969352839822,0.2723386974932002,-51.41078062188395
MOF_0725,Al,C1=CC(=C(C=C1)C(=O)O)C(=O)O,Pyridine,84,15.708460215641578,DMF,cmo,1924.6031125695276,9.192942829450843,0.2719641103145215,-41.86335075565598
MOF_0726,Ni,C1=CC(=C(C=C1)C(=O)O)C(=O)O,NaOH,129,5.716282513563998,H2O,cmo,1835.9970468924437,6.9193610341962355,0.6355361963501813,-49.34072698145776
MOF_0727,Cr,C1=CC(=CC=C1)C(=O)O,,115,24.044938407564786,DMF,cmo,2150.3798876368637,10.986745569009319,0.5418316439200914,-45.919257283488
MOF_0728,Zn,C1=CC(=CC=C1C(=O)O)C(=O)O,,129,43.202850926390965,MeOH,mtn,3016.3531197546067,12.536260491451486,0.5202451884665991,-46.10608085994082
MOF_0729,Mn,C1=CC(=C(C=C1C(=O)O)C(=O)O)O,NH4OH,115,29.05787937481734,CHCl3,mtn,2282.3905198698426,5.424200915104738,0.47146069707053,-48.15710613687634
MOF_0730,Cr,C1=CC(=CC=C1C(=O)O)C(=O)O,AcOH,66,40.62520583488395,MeOH,cmo,1945.5181252011046,12.46421663746381,0.7859258638067383,-49.369524325615515
MOF_0731,Zn,C1=CC(=CC=C1)C(=O)O,No additive,90,47.63147109029404,H2O,cmo,1453.2372815506671,8.427363989214246,0.22988016973662606,-48.441577568157875
MOF_0732,Fe,C1=CC(=C(C=C1C(=O)O)C(=O)O)O,Pyridine,76,11.199112982084156,MeOH,bcu,1312.975186186681,9.671682042764633,0.30837630569694646,-44.3269284170491
MOF_0733,Dy,C1=CC(=C(C=C1)C(=O)O)C(=O)O,,139,34.438216122247226,EtOH,mtn,3378.0787077277932,7.748408194075781,0.5885046544407424,-42.16027798769502
MOF_0734,Co,C1=CC(=CC=C1)C(=O)O,NH4OH,64,33.668917242801086,CHCl3,bcu,1492.8375635196776,18.833975572482018,0.2818193923107448,-46.6287315004348
MOF_0735,Co,C1=CC(=C(C=C1)C(=O)O)C(=O)O,Formic acid,126,47.11803968376425,EtOH,bcu,1184.0935780139387,14.616716781763635,0.5536285628055043,-52.589451323849666
MOF_0736,Mn,C1=C(C(=C(C(=C1Cl)Cl)Cl)Cl)C(=O)O,HCl,126,47.36643229392322,EtOH,dia,2126.4690840470184,7.461825293811618,0.540656735288648,-54.68838295729583
MOF_0737,Ni,C1=CC(=CC=C1)C(=O)O,HCl,154,34.21385891586169,H2O,pcu,3234.615057074057,13.965532687383153,0.7826031101837854,-54.223341095888074
MOF_0738,Al,C1=C(C(=C(C(=C1Cl)Cl)Cl)Cl)C(=O)O,No additive,87,14.719050847216547,DMF,mtn,2759.455109084271,17.425730962894782,0.7300318922294136,-41.01927982031816
MOF_0739,Ni,C1=CC(=CC=C1)C(=O)O,AcOH,121,39.136456877746355,EtOH,cmo,1542.8236395912259,9.827713541657067,0.7673320062604716,-51.19337279243697
MOF_0740,Al,C1=CC(=CC=C1)C(=O)O,NH4OH,168,8.709281905285676,MeOH,cmo,1765.6809148897148,17.1092776556551,0.2681614216843878,-43.89798783932297
MOF_0741,Ni,C1=C(C(=C(C(=C1Cl)Cl)Cl)Cl)C(=O)O,Pyridine,81,38.350769383551665,DMF,pcu,2621.022848761385,5.62505405377987,0.7208890623525133,-47.70164265245726
MOF_0742,Dy,C1=CC(=C(C=C1C(=O)O)C(=O)O)O,AcOH,53,44.04862946236664,MeOH,mtn,3274.781200096364,16.987283202724857,0.2774543970369836,-44.38196835823567
MOF_0743,Fe,C1=CC(=CC=C1C(=O)O)C(=O)O,HCl,43,20.84466936981115,MeOH,cmo,1570.5334122824947,12.185002125430229,0.5797593071263935,-49.979225354886644
MOF_0744,Fe,C1=CC(=C(C=C1)C(=O)O)C(=O)O,AcOH,121,31.74795297925554,DMF,cmo,1654.6160411856333,6.790566296169695,0.6320468964068013,-50.41439967088509
MOF_0745,Zn,C1=CC(=CC=C1)C(=O)O,HCl,43,22.92628021226036,DMF,dia,2217.448639718555,9.921403537450495,0.29651209888957153,-50.48918602946968
MOF_0746,Tb,C1=CC(=C(C=C1)C(=O)O)C(=O)O,AcOH,88,23.261662419477652,MeOH,bcu,1774.3203932015108,19.795880871592484,0.5795956255577239,-47.95524366855677
MOF_0747,Fe,C1=C(C(=C(C(=C1Cl)Cl)Cl)Cl)C(=O)O,No additive,113,17.65631912075728,H2O,cmo,2003.2985809970678,16.320452282921245,0.23147629574719644,-47.263894639172605
MOF_0748,Fe,C1=CC(=C(C=C1)C(=O)O)C(=O)O,NaOH,105,37.533703299814285,CHCl3,mtn,2657.10422826705,12.776468143546959,0.37595965144569815,-44.03261151547858
MOF_0749,Cr,C1=C(C(=C(C(=C1Cl)Cl)Cl)Cl)C(=O)O,No additive,112,45.19176882332623,CHCl3,pcu,3187.6328729620686,4.957786502376935,0.7526950963604702,-48.74836784841553
MOF_0750,Cr,C1=CC(=C(C=C1)C(=O)O)C(=O)O,No additive,106,45.393037806316286,H2O,dia,2559.2678295397754,10.102796909325503,0.3030386977411215,-45.65918142580556
MOF_0751,Zn,C1=CC(=CC=C1C(=O)O)C(=O)O,NaOH,138,11.690376534497089,DMF,mtn,2880.034575794562,7.471875738202933,0.2391619954701965,-44.242789065692364
MOF_0752,Tb,C1=CC(=CC=C1C(=O)O)C(=O)O,NaOH,71,42.4887205848889,MeOH,dia,2425.4344808350547,4.207018351591634,0.4662069197932757,-40.726128200710534
MOF_0753,Mn,C1=CC(=CC=C1C(=O)O)C(=O)O,,79,36.44698342279337,CHCl3,bcu,1372.0033449653654,12.217474608228354,0.710370925116363,-50.015021216049455
MOF_0754,Cr,C1=CC(=CC=C1C(=O)O)C(=O)O,,76,15.124845630372727,MeOH,cmo,1903.3702842548314,18.116156897294893,0.246003429180974,-45.64590006621268
MOF_0755,Mn,C1=CC(=CC=C1C(=O)O)C(=O)O,NH4OH,124,6.96052296854664,H2O,mtn,2273.9231961891132,14.485197758960126,0.41332121913824516,-43.4310698809958
MOF_0756,Cu,C1=CC(=CC=C1C(=O)O)C(=O)O,Pyridine,127,15.79187974291263,MeOH,pcu,2320.136569041368,7.24456659566869,0.7398649007355957,-48.06150709194575
MOF_0757,Cr,C1=C(C(=C(C(=C1Cl)Cl)Cl)Cl)C(=O)O,Pyridine,113,44.13716241838713,H2O,bcu,1584.4153785208846,12.750938318214414,0.2708933299666726,-43.78084819331999
MOF_0758,Dy,C1=CC(=CC=C1)C(=O)O,NH4OH,135,31.85986169541398,DMF,bcu,1372.495403829892,19.03498281689847,0.386401103547168,-40.26214841622795
MOF_0759,Tb,C1=CC(=C(C=C1)C(=O)O)C(=O)O,No additive,64,35.726405079506364,H2O,dia,2336.1192302328063,15.289555899689901,0.6670523669214223,-40.91344045004357
MOF_0760,Zn,C1=CC(=CC=C1C(=O)O)C(=O)O,No additive,150,15.314703448800216,H2O,bcu,1615.8961473194645,14.721056289914987,0.5259265922832826,-50.6856313497946
MOF_0761,Cu,C1=C(C(=C(C(=C1Cl)Cl)Cl)Cl)C(=O)O,HCl,145,35.65307884529209,CHCl3,mtn,2218.96606523288,19.458688825867778,0.6993998843801499,-53.351149346009265
MOF_0762,Tb,C1=C(C(=C(C(=C1Cl)Cl)Cl)Cl)C(=O)O,HCl,122,5.237346276228646,MeOH,dia,2426.0310111667272,16.58084629012842,0.26695723582927905,-47.52835287345698
MOF_0763,Dy,C1=C(C(=C(C(=C1Cl)Cl)Cl)Cl)C(=O)O,Pyridine,153,20.51413921401261,CHCl3,bcu,1738.0947335534597,5.322600232678786,0.7523325028278338,-39.45637016238551
MOF_0764,Tb,C1=CC(=CC=C1)C(=O)O,NH4OH,50,31.577147335862573,EtOH,pcu,3312.2811591337536,8.909796478595425,0.7609470767091253,-43.739670671182424
MOF_0765,Dy,C1=CC(=C(C=C1)C(=O)O)C(=O)O,Formic acid,84,10.428248883818089,H2O,mtn,3123.733034551901,19.407391912540664,0.2931878120880238,-45.16265386587578
MOF_0766,Dy,C1=CC(=CC=C1)C(=O)O,,77,40.21215727566513,EtOH,pcu,3515.077762710527,11.324991701365963,0.22032527864405005,-43.9519380403295
MOF_0767,Mn,C1=CC(=C(C=C1C(=O)O)C(=O)O)O,Formic acid,121,14.34137714772442,CHCl3,pcu,2642.8198401133204,4.897836570460151,0.7939048291733415,-52.99615784450314
MOF_0768,Ni,C1=C(C(=C(C(=C1Cl)Cl)Cl)Cl)C(=O)O,NH4OH,68,32.70036896401163,MeOH,dia,1936.3052257079257,10.796282954429811,0.48935095538145473,-40.36861098540429
MOF_0769,Cu,C1=CC(=C(C=C1C(=O)O)C(=O)O)O,HCl,122,21.828674273314505,CHCl3,cmo,1534.8478164394144,14.848884979203612,0.5432452424212588,-51.39353660706839
MOF_0770,Tb,C1=CC(=CC=C1C(=O)O)C(=O)O,Pyridine,141,30.225918201016476,MeOH,dia,2636.947186610022,19.9583197685811,0.5695428401999458,-40.629120250689894
MOF_0771,Al,C1=CC(=CC=C1C(=O)O)C(=O)O,Pyridine,120,8.727824315671958,MeOH,mtn,2677.85198795035,8.506390381574432,0.6738010776683017,-39.20733970235889
MOF_0772,Cu,C1=CC(=CC=C1)C(=O)O,HCl,108,4.744163196550723,DMF,mtn,2657.475711695044,11.739476872947654,0.6871927814275508,-49.82670014874047
MOF_0773,Ni,C1=CC(=C(C=C1)C(=O)O)C(=O)O,Formic acid,70,44.020834804733255,H2O,dia,2019.9388782643312,17.954571979046495,0.3163551345918644,-47.39279794067371
MOF_0774,Cu,C1=CC(=C(C=C1C(=O)O)C(=O)O)O,AcOH,74,15.863720385756043,CHCl3,cmo,1659.8053687626539,9.03954270697467,0.341982044380116,-48.48577241649352
MOF_0775,Fe,C1=CC(=C(C=C1)C(=O)O)C(=O)O,AcOH,137,40.0657881223402,MeOH,dia,2088.0209008546713,4.857446462044573,0.7260998173678233,-53.36767051599875
MOF_0776,Al,C1=CC(=CC=C1)C(=O)O,HCl,123,47.97141322077681,CHCl3,mtn,2562.0062402175304,19.131909875025567,0.6917105628503519,-47.19477996985238
MOF_0777,Ni,C1=CC(=CC=C1C(=O)O)C(=O)O,AcOH,98,13.30297535195209,CHCl3,cmo,1861.4704724023456,11.303493714129502,0.5705716289323732,-51.48175187420888
MOF_0778,Mn,C1=CC(=C(C=C1)C(=O)O)C(=O)O,NaOH,87,15.667512612067647,MeOH,mtn,2547.7342097770384,11.54732308312352,0.7968194954749099,-41.15277142740702
MOF_0779,Tb,C1=CC(=C(C=C1)C(=O)O)C(=O)O,NH4OH,39,33.16583065592529,EtOH,cmo,1823.721964821139,13.560402458271097,0.6411103661307942,-38.41272690386407