mof_name,metal,linker_smiles,surface_func_group,temperature_celsius,reaction_time_hours,solvent,topology,surface_area_m2g,pore_diameter_angstrom,void_fraction,formation_energy_kJ_mol
MOF_0259,Zn,C1=CC(=C(C=C1C(=O)O)C(=O)O)O,Pyridine,145,9.679134864958783,DMF,dia,2115.240208611494,16.623328247882807,0.3940564131933292,-41.79584900027463
MOF_0260,Zn,C1=C(C(=C(C(=C1Cl)Cl)Cl)Cl)C(=O)O,NH4OH,114,17.105813529169296,DMF,bcu,1607.8076053131842,4.1940341997811785,0.5097386056501485,-44.81511761737618
MOF_0261,Zn,C1=CC(=C(C=C1)C(=O)O)C(=O)O,Pyridine,58,38.32211582976191,H2O,bcu,1300.1111716443593,14.712248432909886,0.6198238134499514,-44.36776766861084
MOF_0262,Mn,C1=C(C(=C(C(=C1Cl)Cl)Cl)Cl)C(=O)O,NaOH,111,24.751560068591516,MeOH,pcu,2595.7952278383873,5.974082232747507,0.2563782772462297,-46.58560205338074
MOF_0263,Fe,C1=CC(=CC=C1)C(=O)O,No additive,36,14.009190562515759,H2O,pcu,2846.2270208392233,13.138552112854898,0.5726444530822603,-48.86208607616188
MOF_0264,Dy,C1=CC(=CC=C1C(=O)O)C(=O)O,,118,11.312139982828965,EtOH,cmo,1924.3805886995424,17.206773982275763,0.7499757691867877,-42.8943571646699
MOF_0265,Al,C1=CC(=CC=C1C(=O)O)C(=O)O,Pyridine,126,18.64009696645668,DMF,dia,2099.7619414067635,15.836371256068553,0.3794781773787467,-41.493463190446015
MOF_0266,Cu,C1=CC(=C(C=C1)C(=O)O)C(=O)O,HCl,82,45.35667240697119,EtOH,pcu,3204.943500346368,15.800029090621834,0.5759750569258475,-51.713156567607
MOF_0267,Al,C1=CC(=CC=C1)C(=O)O,,103,19.093175353961072,CHCl3,cmo,1610.6857667563418,11.803370307177389,0.6927976702101462,-48.24915973363877
MOF_0268,Cu,C1=CC(=C(C=C1C(=O)O)C(=O)O)O,NH4OH,158,47.477459342003954,DMF,dia,1966.4482871306768,18.142675061445264,0.5070838384631745,-47.74873791505679
MOF_0269,Cr,C1=CC(=CC=C1)C(=O)O,NaOH,84,25.350140053675673,EtOH,bcu,1894.5167616314416,12.997788370113964,0.630787720412231,-42.27612377054269
MOF_0270,Al,C1=CC(=CC=C1C(=O)O)C(=O)O,HCl,68,11.883212404766638,CHCl3,cmo,1995.8113729856557,18.597805465342702,0.3866062030935561,-48.03774296198017
MOF_0271,Ni,C1=CC(=CC=C1C(=O)O)C(=O)O,HCl,144,43.210164038914414,EtOH,dia,1841.292888808868,12.290881783151098,0.38363507175508693,-53.747007129216385
MOF_0272,Ni,C1=CC(=CC=C1)C(=O)O,HCl,158,24.255636417932383,CHCl3,cmo,1345.5705728909325,11.601414571340051,0.6005504130791365,-51.85788627003802
MOF_0273,Co,C1=CC(=CC=C1)C(=O)O,HCl,100,35.22553911419908,CHCl3,pcu,2785.957288651905,6.780001326575346,0.6232453243840903,-56.443262264908036
MOF_0274,Fe,C1=CC(=CC=C1C(=O)O)C(=O)O,,130,47.28330966120268,DMF,mtn,2132.0969501730237,12.261373118513484,0.7622058197072863,-46.208813222172495
MOF_0275,Cu,C1=CC(=C(C=C1C(=O)O)C(=O)O)O,,140,6.207715414078856,H2O,bcu,1383.9734120791736,5.3899421312312485,0.33490314483078476,-49.98028014909399
MOF_0276,Cu,C1=CC(=C(C=C1)C(=O)O)C(=O)O,No additive,77,8.254560630652954,CHCl3,pcu,2706.965317378908,17.784733421412273,0.48093055765278153,-50.57493596897931
MOF_0277,Fe,C1=CC(=C(C=C1)C(=O)O)C(=O)O,Pyridine,85,35.70009662436127,CHCl3,pcu,3064.02438570532,14.490162108040987,0.3503080838983349,-44.665770583382994
MOF_0278,Mn,C1=CC(=CC=C1)C(=O)O,Formic acid,136,16.40030014500077,DMF,dia,1641.3320513831134,19.891802624380013,0.24805529652814726,-52.794851308902686
MOF_0279,Co,C1=CC(=C(C=C1)C(=O)O)C(=O)O,No additive,150,12.109261465804359,H2O,cmo,1591.305720030787,4.5656562724388925,0.44193831676849266,-51.169162907615345
MOF_0280,Mn,C1=CC(=CC=C1C(=O)O)C(=O)O,No additive,116,5.731922712068098,MeOH,bcu,1362.3803293675035,7.091436747369877,0.424448448372922,-51.72232001975212
MOF_0281,Mn,C1=CC(=CC=C1C(=O)O)C(=O)O,NaOH,73,4.961255327392879,MeOH,pcu,2591.1135517407124,17.911696272524367,0.36226047198931277,-44.88756178120942
MOF_0282,Mn,C1=CC(=CC=C1)C(=O)O,NaOH,159,38.0773665372708,H2O,dia,1601.470700617916,9.7193196960716,0.3781969346836499,-49.83939970056919
MOF_0283,Fe,C1=CC(=CC=C1)C(=O)O,Pyridine,84,9.9150708042602,EtOH,bcu,1295.4996539232234,10.927150829692259,0.4162470838107669,-43.37746848614874
MOF_0284,Mn,C1=CC(=CC=C1)C(=O)O,Formic acid,89,24.579707102730637,DMF,cmo,1809.9823120462788,17.631082085589487,0.7933025796680562,-50.493955429264474
MOF_0285,Ni,C1=CC(=C(C=C1C(=O)O)C(=O)O)O,NaOH,110,30.659459867897255,H2O,pcu,2691.865277058223,11.870994824149188,0.6697746595803682,-49.39259789534242
MOF_0286,Zn,C1=CC(=C(C=C1)C(=O)O)C(=O)O,Pyridine,146,22.847479225029236,MeOH,pcu,2667.176770404554,6.289089440044258,0.24284072065214418,-47.2200557090422
MOF_0287,Cr,C1=CC(=CC=C1)C(=O)O,Pyridine,125,5.192692702794257,CHCl3,pcu,3476.646429335468,18.164511961966276,0.7234479058920211,-42.23939668270932
MOF_0288,Cu,C1=C(C(=C(C(=C1Cl)Cl)Cl)Cl)C(=O)O,,112,38.47406611386799,MeOH,bcu,1030.147054789444,3.5280481591915693,0.579981995839203,-50.075719979592044
MOF_0289,Cu,C1=C(C(=C(C(=C1Cl)Cl)Cl)Cl)C(=O)O,AcOH,113,4.4625818798327535,CHCl3,bcu,1288.5959004774497,18.221736549938534,0.7343562560731456,-49.711703465288174
MOF_0290,Cr,C1=CC(=CC=C1C(=O)O)C(=O)O,,101,37.523155352609294,DMF,bcu,1762.6553109152958,3.85884385342969,0.40502581227813694,-47.30000490425353
MOF_0291,Fe,C1=CC(=C(C=C1)C(=O)O)C(=O)O,Formic acid,116,43.3053977266774,CHCl3,bcu,1667.7411760037471,14.319439198202177,0.47871131888703133,-52.80115015448751
MOF_0292,Al,C1=CC(=CC=C1)C(=O)O,NaOH,24,23.04495652651558,H2O,dia,1842.4151524678402,4.218549454480689,0.737736234384865,-36.624653292829585
MOF_0293,Fe,C1=C(C(=C(C(=C1Cl)Cl)Cl)Cl)C(=O)O,Formic acid,91,27.56386881630312,CHCl3,mtn,2802.3180214941394,15.005620761406114,0.36354388154820894,-50.63713128946807
MOF_0294,Cu,C1=CC(=C(C=C1)C(=O)O)C(=O)O,No additive,107,24.987269275176764,EtOH,dia,2152.3449280100936,3.577512462660165,0.7493005257472494,-51.13589567898723
MOF_0295,Cu,C1=CC(=CC=C1C(=O)O)C(=O)O,No additive,65,21.125179219431306,H2O,pcu,2588.596906368374,17.32178137108339,0.6970998272865616,-52.180820424390404
MOF_0296,Cr,C1=CC(=C(C=C1C(=O)O)C(=O)O)O,Formic acid,111,43.04667955629585,DMF,dia,2438.18181788687,10.92104716580974,0.788334764545576,-45.469925716348534
MOF_0297,Mn,C1=CC(=C(C=C1)C(=O)O)C(=O)O,AcOH,93,43.333074469479584,H2O,cmo,919.6056545317311,4.588716515370924,0.3945545522098179,-53.93408112198812
MOF_0298,Fe,C1=CC(=C(C=C1)C(=O)O)C(=O)O,AcOH,152,18.77592004422752,EtOH,bcu,875.4039370384177,15.015930565172447,0.34145190800287006,-52.88676609360326
MOF_0299,Dy,C1=CC(=C(C=C1C(=O)O)C(=O)O)O,,147,31.06306917664671,DMF,cmo,2291.706544001651,11.317932677563963,0.3985201382274369,-46.19098746374547
MOF_0300,Cr,C1=CC(=C(C=C1)C(=O)O)C(=O)O,Formic acid,86,44.78393273441802,MeOH,cmo,1872.2209542028065,6.246130600882529,0.7727898775932411,-46.331569179862804
MOF_0301,Ni,C1=CC(=CC=C1C(=O)O)C(=O)O,NaOH,95,46.33057395341947,EtOH,pcu,2570.7575536995723,3.266430356108338,0.39984397763176494,-50.5178593320475
MOF_0302,Cu,C1=CC(=CC=C1C(=O)O)C(=O)O,,97,26.394197778570092,DMF,bcu,1396.9352807388052,10.10597041533413,0.5391270919743429,-50.38196281842033
MOF_0303,Cr,C1=CC(=C(C=C1C(=O)O)C(=O)O)O,NH4OH,86,23.92429143251038,CHCl3,cmo,1906.8135578446256,4.455696922385105,0.44220756955190854,-43.054678217669
MOF_0304,Fe,C1=CC(=CC=C1)C(=O)O,AcOH,105,16.262549900855134,H2O,pcu,2758.26157329261,4.600884870203032,0.4377320866890686,-56.171536692344674
MOF_0305,Cu,C1=C(C(=C(C(=C1Cl)Cl)Cl)Cl)C(=O)O,HCl,77,46.19036242037804,DMF,bcu,1428.89781238201,7.544602322165507,0.31602716592743313,-54.31687654455674
MOF_0306,Al,C1=CC(=CC=C1)C(=O)O,,66,10.283829396806164,H2O,mtn,2640.892748464122,13.717791053121212,0.522247724478554,-42.17296013605597
MOF_0307,Cr,C1=CC(=C(C=C1)C(=O)O)C(=O)O,No additive,118,29.5125013460999,CHCl3,pcu,3531.9835303721193,12.008480345536135,0.7096425529803241,-48.74890784137276
MOF_0308,Co,C1=C(C(=C(C(=C1Cl)Cl)Cl)Cl)C(=O)O,,118,16.43221177082011,DMF,dia,1977.9499950251293,4.17278424039757,0.2296910081323225,-47.33402312635073
MOF_0309,Cu,C1=CC(=C(C=C1C(=O)O)C(=O)O)O,Formic acid,75,16.27636477530305,MeOH,bcu,1148.8682998518254,19.463331690171987,0.733535956198053,-51.42775739703632
MOF_0310,Fe,C1=CC(=C(C=C1C(=O)O)C(=O)O)O,HCl,126,21.818617844552293,EtOH,cmo,1481.9580630955336,18.081867701008047,0.5992837790823797,-51.56046940617395
MOF_0311,Zn,C1=C(C(=C(C(=C1Cl)Cl)Cl)Cl)C(=O)O,Formic acid,81,47.9468891758888,DMF,cmo,1808.5303772910647,7.406833281467691,0.5700428483449418,-51.34841720176967
MOF_0312,Dy,C1=CC(=CC=C1C(=O)O)C(=O)O,Pyridine,107,6.418517500952171,CHCl3,dia,2468.7284580443247,5.079755791356401,0.5755401397543953,-39.878160228326216
MOF_0313,Tb,C1=C(C(=C(C(=C1Cl)Cl)Cl)Cl)C(=O)O,No additive,124,29.455840000955384,DMF,dia,2154.2319850962485,19.020848700868832,0.3777619015726817,-44.132372248473736
MOF_0314,Mn,C1=CC(=C(C=C1)C(=O)O)C(=O)O,No additive,98,7.633174953552196,H2O,cmo,1409.6329789243728,10.839410223971898,0.4490867023209727,-51.305790204382554
MOF_0315,Tb,C1=CC(=CC=C1C(=O)O)C(=O)O,AcOH,113,10.798916519582836,DMF,bcu,1518.160199423437,8.289838401114409,0.6795740035425288,-47.871133372620505
MOF_0316,Fe,C1=CC(=C(C=C1C(=O)O)C(=O)O)O,,84,23.34076943800754,MeOH,pcu,3102.371307304174,11.336086597808185,0.3838286221617738,-46.64380253647463
MOF_0317,Ni,C1=C(C(=C(C(=C1Cl)Cl)Cl)Cl)C(=O)O,AcOH,94,26.46024577924342,DMF,dia,1962.0904829943483,16.136650457289008,0.4820121257436181,-49.51124751900836
MOF_0318,Ni,C1=CC(=CC=C1)C(=O)O,HCl,93,15.386865968039055,EtOH,dia,2249.8678856741117,5.862550071151926,0.21177936283259202,-52.119193404906866
MOF_0319,Zn,C1=CC(=CC=C1)C(=O)O,,77,17.924113758474313,DMF,dia,2058.0051551265483,16.047429169658223,0.640135011761304,-44.416478365721495
MOF_0320,Mn,C1=CC(=C(C=C1)C(=O)O)C(=O)O,Pyridine,94,7.826548891261055,H2O,mtn,2321.773622251194,15.740595394875712,0.45062130600716344,-41.79359189521686
MOF_0321,Co,C1=CC(=CC=C1)C(=O)O,Formic acid,53,17.341670489147024,DMF,bcu,1457.3106450471428,12.168919482294957,0.5152152610841623,-51.3700591212289
MOF_0322,Zn,C1=C(C(=C(C(=C1Cl)Cl)Cl)Cl)C(=O)O,Pyridine,85,46.52857133274394,MeOH,bcu,1620.8265221148067,17.71931890874289,0.2688135906864552,-45.22485848357147
MOF_0323,Tb,C1=C(C(=C(C(=C1Cl)Cl)Cl)Cl)C(=O)O,No additive,91,45.567124793589194,CHCl3,bcu,1824.1982144905933,5.24643742888763,0.7950285372724621,-47.66488940830822
MOF_0324,Zn,C1=CC(=CC=C1)C(=O)O,HCl,92,18.73464476602734,DMF,bcu,1322.438089513305,13.123143113316443,0.38148069619090763,-51.220004723173766
MOF_0325,Tb,C1=C(C(=C(C(=C1Cl)Cl)Cl)Cl)C(=O)O,NH4OH,92,29.11757319626551,DMF,bcu,1508.0641726018812,10.638831892530966,0.5809937969578702,-43.544198134855804
MOF_0326,Cu,C1=CC(=C(C=C1)C(=O)O)C(=O)O,HCl,98,44.02219720888155,EtOH,cmo,1548.9159457025646,10.178965918209139,0.5487418069126793,-52.25760708248184
MOF_0327,Ni,C1=CC(=CC=C1C(=O)O)C(=O)O,NaOH,114,4.272088196199453,MeOH,dia,2232.1813728171196,7.293538211581932,0.6710553223549942,-41.256210868896794
MOF_0328,Cu,C1=CC(=C(C=C1)C(=O)O)C(=O)O,HCl,126,39.670077094854044,CHCl3,cmo,1419.8633633136928,9.328754165768437,0.3763021733731764,-53.16768067957761
MOF_0329,Dy,C1=CC(=C(C=C1)C(=O)O)C(=O)O,Pyridine,80,45.72826032271244,H2O,mtn,3114.6149987686686,4.838562852402317,0.6535564069983424,-40.949026883583244
MOF_0330,Mn,C1=C(C(=C(C(=C1Cl)Cl)Cl)Cl)C(=O)O,NaOH,63,8.018332310676511,DMF,pcu,2695.9715828846374,7.277182486002029,0.42950103841144066,-44.116766662227576
MOF_0331,Co,C1=CC(=CC=C1C(=O)O)C(=O)O,NaOH,68,11.103698185448525,CHCl3,dia,2159.270852949764,7.623406832227404,0.4466965795078095,-42.790836991655816
MOF_0332,Tb,C1=C(C(=C(C(=C1Cl)Cl)Cl)Cl)C(=O)O,,85,46.27283732193964,H2O,mtn,3247.0836735635844,15.251353746822371,0.6036275158920621,-41.58393620750114
MOF_0333,Co,C1=CC(=C(C=C1C(=O)O)C(=O)O)O,,89,27.651766320175238,MeOH,cmo,1672.1687161558605,3.8253572625506735,0.6705714630442814,-48.00817754153789
MOF_0334,Tb,C1=C(C(=C(C(=C1Cl)Cl)Cl)Cl)C(=O)O,NaOH,76,4.624651916755843,MeOH,pcu,3146.973275690053,14.070269238564633,0.6001199816723355,-42.15213883382372
MOF_0335,Fe,C1=C(C(=C(C(=C1Cl)Cl)Cl)Cl)C(=O)O,NH4OH,61,15.335807945595283,CHCl3,mtn,2521.844814219573,6.7639684664842274,0.7399277123426913,-42.24952920060332
MOF_0336,Zn,C1=C(C(=C(C(=C1Cl)Cl)Cl)Cl)C(=O)O,,86,23.797521667829823,H2O,pcu,3225.29803518579,4.391645600576997,0.37109541770604043,-46.804332220037516
MOF_0337,Dy,C1=CC(=CC=C1C(=O)O)C(=O)O,HCl,105,34.48799208508978,MeOH,mtn,3374.727466651148,8.11370473845238,0.7403700392611696,-46.290504596776884
MOF_0338,Ni,C1=C(C(=C(C(=C1Cl)Cl)Cl)Cl)C(=O)O,Pyridine,117,36.25905663801918,CHCl3,cmo,1317.0030184449067,6.816038780286247,0.27851811556602724,-44.16889120106543
MOF_0339,Tb,C1=CC(=CC=C1C(=O)O)C(=O)O,HCl,83,47.79854656872007,MeOH,pcu,3533.891525940965,12.38455038927745,0.5957181914179884,-48.84582175375041
MOF_0340,Co,C1=CC(=CC=C1)C(=O)O,NH4OH,87,16.650492772885396,MeOH,mtn,2837.7556877528673,9.075398858615362,0.5285783908281065,-40.95362230997888
MOF_0341,Dy,C1=CC(=C(C=C1C(=O)O)C(=O)O)O,No additive,72,27.681684482212912,MeOH,cmo,2080.7661577427343,19.421893620941546,0.4967815642493537,-42.026170178656976
MOF_0342,Al,C1=CC(=CC=C1C(=O)O)C(=O)O,AcOH,99,27.46623610582262,EtOH,dia,2395.2562361359214,19.38034318964446,0.386547217317307,-49.138709972530776
MOF_0343,Al,C1=CC(=CC=C1)C(=O)O,Pyridine,74,21.84839141567845,H2O,cmo,2092.297037115242,10.543159575044072,0.5022396471849406,-38.96330029582962
MOF_0344,Cu,C1=CC(=CC=C1C(=O)O)C(=O)O,,117,11.443123329066488,CHCl3,cmo,1480.8567207675196,16.516486831224412,0.297064013830822,-47.165767729692675
MOF_0345,Ni,C1=CC(=CC=C1C(=O)O)C(=O)O,Pyridine,46,47.008088780089075,CHCl3,dia,2401.919560924296,3.225565194634876,0.4215925665270054,-42.56201451358745
MOF_0346,Fe,C1=CC(=C(C=C1C(=O)O)C(=O)O)O,HCl,89,41.54595621332979,H2O,cmo,1954.6155957293065,12.312796940321645,0.2592085504903265,-50.975982673768264
MOF_0347,Co,C1=CC(=C(C=C1)C(=O)O)C(=O)O,AcOH,109,25.926653244946436,H2O,dia,2128.8056294406924,15.636085929218645,0.5431079598717918,-50.46391750401241
MOF_0348,Zn,C1=CC(=C(C=C1)C(=O)O)C(=O)O,Formic acid,105,30.542798598097313,H2O,dia,2193.0984311630577,6.6880348319247105,0.2574607317197762,-49.07707272513202
MOF_0349,Zn,C1=CC(=CC=C1C(=O)O)C(=O)O,Formic acid,180,13.999486356625141,H2O,dia,2298.9554889227493,4.039919837821044,0.29620678634309944,-49.60273213606541
MOF_0350,Co,C1=C(C(=C(C(=C1Cl)Cl)Cl)Cl)C(=O)O,,110,27.926631097236864,DMF,mtn,2263.943500267111,5.65062191040975,0.2512800808924888,-44.41414062205228
MOF_0351,Mn,C1=CC(=CC=C1)C(=O)O,NH4OH,69,34.57868585734494,CHCl3,pcu,2966.4175535819236,10.511417481955569,0.4287863839712468,-48.7373565213924
MOF_0352,Fe,C1=C(C(=C(C(=C1Cl)Cl)Cl)Cl)C(=O)O,Formic acid,97,26.667349249009906,DMF,mtn,2885.77831468847,11.608314152856453,0.7051750726510091,-47.60079063475748
MOF_0353,Dy,C1=C(C(=C(C(=C1Cl)Cl)Cl)Cl)C(=O)O,Pyridine,46,47.57254750573742,MeOH,dia,2822.802719360451,9.475047075849064,0.7441378349802967,-38.95841441139608
MOF_0354,Tb,C1=CC(=CC=C1C(=O)O)C(=O)O,Formic acid,97,30.89903287489995,MeOH,pcu,3366.151432736739,10.47955403972046,0.24313367276000805,-49.73683903933244
MOF_0355,Mn,C1=CC(=CC=C1C(=O)O)C(=O)O,No additive,75,20.322843354055436,CHCl3,pcu,2477.9421607840745,10.993994313357781,0.5807300845169763,-54.486373565953
MOF_0356,Tb,C1=CC(=CC=C1C(=O)O)C(=O)O,No additive,127,37.97468921509688,MeOH,dia,2329.138559329945,16.080423247218636,0.6106312547552442,-43.535654289450875
MOF_0357,Tb,C1=CC(=CC=C1C(=O)O)C(=O)O,,83,11.50035050959225,H2O,pcu,3522.714921769362,4.789112267320091,0.5202619654592145,-43.99085105025875
MOF_0358,Mn,C1=CC(=C(C=C1)C(=O)O)C(=O)O,No additive,96,20.918695803075728,DMF,pcu,2447.4905840687456,16.072157941709733,0.6001909168817277,-51.733118620501216
MOF_0359,Cu,C1=CC(=CC=C1C(=O)O)C(=O)O,Formic acid,80,19.26619381661378,H2O,mtn,2482.5286133630584,14.706664139014968,0.3402144292658572,-49.94866625452629
MOF_0360,Al,C1=CC(=C(C=C1)C(=O)O)C(=O)O,NH4OH,152,22.9995121847422,MeOH,pcu,3259.27982533505,15.608233761097408,0.4937865270914097,-43.20874728872696
MOF_0361,Tb,C1=CC(=C(C=C1)C(=O)O)C(=O)O,NaOH,90,38.39831234086396,DMF,dia,2332.134336632733,15.485962559880488,0.43452550942149715,-41.98164347379587
MOF_0362,Mn,C1=CC(=CC=C1C(=O)O)C(=O)O,NaOH,154,25.30361341518993,H2O,bcu,1483.789352796638,11.000060868630323,0.25382477086377864,-49.2228034183556
MOF_0363,Mn,C1=CC(=C(C=C1C(=O)O)C(=O)O)O,,124,38.93663581170236,CHCl3,bcu,1271.451784422029,6.593803137535301,0.5753338638334935,-52.731554285477166
MOF_0364,Cr,C1=CC(=CC=C1)C(=O)O,AcOH,114,29.365511738154098,H2O,bcu,1348.3761363408057,12.122691373130667,0.4971291156029278,-51.02285354139801
MOF_0365,Cu,C1=C(C(=C(C(=C1Cl)Cl)Cl)Cl)C(=O)O,NaOH,111,19.051055124932436,MeOH,dia,1845.9994642463344,19.285694911354692,0.36510441614155,-44.538103315542514
MOF_0366,Ni,C1=CC(=C(C=C1)C(=O)O)C(=O)O,NaOH,111,39.63906472207279,DMF,bcu,1581.6370899940528,13.004936583687183,0.48421115624202293,-49.70316608184119
MOF_0367,Cr,C1=CC(=CC=C1)C(=O)O,No additive,42,14.48474550433603,CHCl3,mtn,2892.5994973275237,3.187801468617219,0.665178811038502,-40.97067963316747
MOF_0368,Cr,C1=CC(=C(C=C1C(=O)O)C(=O)O)O,No additive,91,13.872851111191002,DMF,dia,2598.8154974475237,4.015085382898641,0.6809946576848385,-42.9157277306653
MOF_0369,Co,C1=C(C(=C(C(=C1Cl)Cl)Cl)Cl)C(=O)O,Formic acid,125,26.198128658412774,CHCl3,dia,2048.3346873389146,19.87867837126039,0.5897156772496215,-51.73955123989999
MOF_0370,Al,C1=C(C(=C(C(=C1Cl)Cl)Cl)Cl)C(=O)O,,98,15.477366822331913,DMF,dia,2275.6599396541774,4.223088107070486,0.48064870004009835,-45.928493869727056
MOF_0371,Mn,C1=CC(=C(C=C1)C(=O)O)C(=O)O,AcOH,57,4.399829537853519,MeOH,pcu,3052.518830156655,3.7827677207632755,0.5454497835223089,-53.76564503297833
MOF_0372,Al,C1=CC(=CC=C1C(=O)O)C(=O)O,,98,32.52509120114726,CHCl3,pcu,2893.1567514140693,9.001412579097142,0.43100922281337034,-48.777595339064064
MOF_0373,Fe,C1=CC(=C(C=C1C(=O)O)C(=O)O)O,HCl,151,26.488128144785513,EtOH,pcu,2701.9732790020435,19.478392455578724,0.275933805796543,-56.38900812448252
MOF_0374,Co,C1=CC(=C(C=C1)C(=O)O)C(=O)O,Pyridine,137,23.602783837699093,DMF,cmo,1651.3139862033183,8.417477613458717,0.43137235843165517,-46.857851001592294
MOF_0375,Ni,C1=CC(=C(C=C1C(=O)O)C(=O)O)O,AcOH,98,46.54661464320588,DMF,mtn,2947.1498784100168,9.968030224879602,0.5181996536417806,-49.42347307369656
MOF_0376,Al,C1=CC(=CC=C1C(=O)O)C(=O)O,AcOH,128,29.132764094368202,H2O,dia,2305.7797646415383,13.779310040545614,0.5593004087903505,-45.2822032250395
MOF_0377,Zn,C1=CC(=CC=C1C(=O)O)C(=O)O,NH4OH,89,41.990989422732916,CHCl3,dia,2254.8505877110906,3.409901268548763,0.7614805856327727,-42.11807742975823
MOF_0378,Tb,C1=CC(=C(C=C1)C(=O)O)C(=O)O,,48,10.135810393027047,EtOH,pcu,3292.8329000826734,18.261980817826196,0.6664000670183698,-43.97601087424623
MOF_0379,Fe,C1=CC(=CC=C1C(=O)O)C(=O)O,Formic acid,72,29.045084377694817,MeOH,dia,2161.725715712381,11.830531298425345,0.29119553686680644,-46.94974141789256
MOF_0380,Cu,C1=CC(=CC=C1)C(=O)O,NH4OH,146,42.191103576159726,H2O,dia,1925.2365186727077,10.935785402068985,0.30450932399175684,-45.04636001275899
MOF_0381,Ni,C1=C(C(=C(C(=C1Cl)Cl)Cl)Cl)C(=O)O,AcOH,91,29.656653320315513,EtOH,bcu,1459.064520886651,17.63235325751272,0.26029685554385246,-52.01030258011785
MOF_0382,Fe,C1=CC(=C(C=C1)C(=O)O)C(=O)O,AcOH,92,35.592623837588064,CHCl3,dia,2244.837465297099,19.20230201908636,0.6429090363325507,-49.48278743348783
MOF_0383,Tb,C1=CC(=C(C=C1C(=O)O)C(=O)O)O,AcOH,91,20.369916983737124,EtOH,cmo,1969.1789674343604,10.198228937996191,0.6236733670951142,-45.121649005612134
MOF_0384,Co,C1=CC(=CC=C1)C(=O)O,NaOH,157,8.06777874963093,DMF,pcu,2534.9039923807873,5.931498347984922,0.7918177410181289,-46.62168014165964
MOF_0385,Tb,C1=CC(=C(C=C1)C(=O)O)C(=O)O,,148,24.14761298559114,DMF,mtn,3154.7139694051475,16.867057590035238,0.5132140505986093,-41.231271733360714
MOF_0386,Cr,C1=CC(=CC=C1C(=O)O)C(=O)O,Pyridine,166,21.35709319690973,H2O,mtn,3360.4243496842337,9.855427160782282,0.6958489573093292,-41.678370765501654
MOF_0387,Tb,C1=CC(=CC=C1C(=O)O)C(=O)O,Pyridine,95,42.150648024673686,CHCl3,bcu,1514.6678812441583,18.904274171700024,0.5458639151856726,-40.49495504134282
MOF_0388,Cr,C1=CC(=CC=C1C(=O)O)C(=O)O,NH4OH,108,14.735793303508778,CHCl3,mtn,3146.7833780786605,19.14828272512671,0.7244520275164623,-36.859674300872996