mof_name,metal,linker_smiles,surface_func_group,temperature_celsius,reaction_time_hours,solvent,topology,surface_area_m2g,pore_diameter_angstrom,void_fraction,formation_energy_kJ_mol
MOF_1040,Dy,C1=CC(=C(C=C1C(=O)O)C(=O)O)O,,114,27.57031470006531,DMF,dia,1844.8409294332696,16.57440706995156,0.5851238652772619,-41.29233029538467
MOF_1041,Fe,C1=CC(=CC=C1)C(=O)O,,83,21.34438176239595,EtOH,cmo,1342.370310629462,19.396662451858134,0.7816230066379244,-48.62647368913263
MOF_1042,Al,C1=C(C(=C(C(=C1Cl)Cl)Cl)Cl)C(=O)O,AcOH,115,41.3209376563274,CHCl3,dia,1976.8079067471474,5.5711367484984216,0.2825833988248186,-49.2567724140897
MOF_1043,Dy,C1=C(C(=C(C(=C1Cl)Cl)Cl)Cl)C(=O)O,NH4OH,158,25.691239260155918,EtOH,bcu,1778.307586165579,3.310555687364504,0.4511642055758297,-42.91520389684073
MOF_1044,Tb,C1=CC(=C(C=C1C(=O)O)C(=O)O)O,No additive,124,24.763710464839015,CHCl3,dia,2269.733461357173,17.772384138420996,0.7101154401171526,-40.872147787981646
MOF_1045,Mn,C1=CC(=CC=C1C(=O)O)C(=O)O,AcOH,98,25.573749534032444,CHCl3,pcu,2155.1737247871683,6.319646665201733,0.7593834096469281,-55.08834374578382
MOF_1046,Zn,C1=CC(=C(C=C1)C(=O)O)C(=O)O,HCl,94,41.258540082268794,CHCl3,mtn,2773.8188623050123,3.722139032740616,0.5607416347753431,-49.09590878550328
MOF_1047,Co,C1=CC(=CC=C1)C(=O)O,HCl,89,40.605427834274295,H2O,pcu,2543.634386573829,5.721634340176558,0.28605236152413405,-51.73963876063281
MOF_1048,Zn,C1=C(C(=C(C(=C1Cl)Cl)Cl)Cl)C(=O)O,Pyridine,135,21.75487966736929,MeOH,mtn,2892.6198275847933,9.529953491144077,0.7408829503685932,-40.54327542622593
MOF_1049,Zn,C1=CC(=CC=C1C(=O)O)C(=O)O,NaOH,81,18.6651938343031,EtOH,dia,2287.653729453366,6.727516927073861,0.30466793971456557,-39.52944239025059
MOF_1050,Cu,C1=CC(=C(C=C1C(=O)O)C(=O)O)O,,101,25.644833057721687,MeOH,cmo,1728.817256436636,8.189311694707532,0.41172670899927116,-46.91237362235099
MOF_1051,Fe,C1=C(C(=C(C(=C1Cl)Cl)Cl)Cl)C(=O)O,NH4OH,101,29.201990428432797,DMF,dia,1578.3438945411785,19.57999887431079,0.4253047866573571,-44.44910920677289
MOF_1052,Mn,C1=CC(=C(C=C1C(=O)O)C(=O)O)O,Pyridine,84,14.486837267631866,EtOH,bcu,1284.0818252759764,14.974894250763777,0.4683749239235769,-46.58672626837232
MOF_1053,Ni,C1=CC(=CC=C1)C(=O)O,NaOH,58,38.934023727485986,MeOH,dia,1911.7195199863881,15.107259380304468,0.6740994895585699,-45.59359278533132
MOF_1054,Dy,C1=CC(=C(C=C1)C(=O)O)C(=O)O,NaOH,109,25.405241692226607,MeOH,mtn,2975.6711440444406,4.609651370374688,0.6812866268614908,-41.65779896305739
MOF_1055,Co,C1=C(C(=C(C(=C1Cl)Cl)Cl)Cl)C(=O)O,Pyridine,98,18.69800413047822,DMF,pcu,2332.51384749271,15.44567228698576,0.6317930439668686,-45.633676769064834
MOF_1056,Al,C1=C(C(=C(C(=C1Cl)Cl)Cl)Cl)C(=O)O,Formic acid,115,8.700123690415587,CHCl3,cmo,1868.2630157725148,15.568853660240183,0.21327720465294897,-46.54458993911601
MOF_1057,Mn,C1=CC(=CC=C1)C(=O)O,NaOH,83,14.509187057758705,EtOH,dia,2082.823210751241,14.215665312912748,0.538907061330291,-44.51435756051408
MOF_1058,Cr,C1=CC(=CC=C1C(=O)O)C(=O)O,Formic acid,136,45.76837155726328,EtOH,dia,1903.6484794849453,6.8834170319638766,0.6484957735288401,-47.94363450217057
MOF_1059,Ni,C1=CC(=C(C=C1)C(=O)O)C(=O)O,HCl,73,17.42438622005917,DMF,pcu,2473.4958254192006,10.191615044397144,0.4667751440369257,-49.18604725776757
MOF_1060,Cu,C1=C(C(=C(C(=C1Cl)Cl)Cl)Cl)C(=O)O,HCl,151,11.429808732149553,CHCl3,cmo,1646.3070225972326,17.38669972938363,0.7669616272192379,-54.37915796455207
MOF_1061,Cu,C1=CC(=C(C=C1)C(=O)O)C(=O)O,NaOH,47,24.2696028328197,EtOH,dia,2204.983998838726,14.393427698790648,0.6942863131282107,-46.61098415745344
MOF_1062,Mn,C1=C(C(=C(C(=C1Cl)Cl)Cl)Cl)C(=O)O,HCl,113,17.511860707850943,EtOH,dia,1807.5256971637364,15.45707019499834,0.5828930392920986,-53.115025427206035
MOF_1063,Tb,C1=CC(=C(C=C1)C(=O)O)C(=O)O,NH4OH,114,5.547007011932543,EtOH,mtn,3522.2005896061573,12.98536480213875,0.23745511020950805,-38.79841932077936
MOF_1064,Zn,C1=CC(=C(C=C1C(=O)O)C(=O)O)O,Formic acid,76,18.21838956029436,CHCl3,mtn,2440.9386921439564,10.642972184900234,0.591407748549883,-47.82659363849694
MOF_1065,Cr,C1=C(C(=C(C(=C1Cl)Cl)Cl)Cl)C(=O)O,Formic acid,112,27.940779453336617,DMF,bcu,1246.6124156722108,15.90388417114084,0.7469477607513315,-46.366630679508376
MOF_1066,Cu,C1=CC(=C(C=C1)C(=O)O)C(=O)O,NaOH,138,28.275344368878546,EtOH,pcu,2903.5430099447376,4.154738844227184,0.4276672321285709,-50.532215308278
MOF_1067,Co,C1=CC(=CC=C1C(=O)O)C(=O)O,HCl,33,19.6885925317831,MeOH,cmo,1186.0751495946458,14.44373245726449,0.7028795153632166,-51.27073934344875
MOF_1068,Cu,C1=CC(=C(C=C1C(=O)O)C(=O)O)O,AcOH,115,23.681321275114428,CHCl3,dia,2072.30646726013,19.952476633461547,0.3878966857173074,-49.151447674351246
MOF_1069,Al,C1=CC(=C(C=C1C(=O)O)C(=O)O)O,,25,46.482788402329724,H2O,dia,2251.0935123012378,16.26326280095654,0.5420619749283817,-43.76298571294568
MOF_1070,Dy,C1=CC(=CC=C1C(=O)O)C(=O)O,Pyridine,71,20.603332998133713,DMF,bcu,1544.7998795120002,7.9395796968167405,0.5890546510224695,-39.02311477597654
MOF_1071,Cu,C1=CC(=C(C=C1)C(=O)O)C(=O)O,Pyridine,148,15.361979783439251,MeOH,dia,1894.6665583062256,7.72293140999147,0.606797022535337,-44.549486629347435
MOF_1072,Al,C1=CC(=CC=C1)C(=O)O,Formic acid,82,14.712549938937446,EtOH,pcu,2892.1856212741122,14.3427163800888,0.7295295886786091,-48.717997599806836
MOF_1073,Mn,C1=CC(=CC=C1C(=O)O)C(=O)O,NaOH,64,24.141642958981905,H2O,bcu,1211.3331889167448,18.229522369145016,0.34077336020376925,-49.88740632635468
MOF_1074,Mn,C1=CC(=C(C=C1)C(=O)O)C(=O)O,NaOH,94,37.41888654354554,DMF,pcu,2553.4838668709717,12.825145594413328,0.3574217511733848,-50.222704718871015
MOF_1075,Ni,C1=CC(=CC=C1C(=O)O)C(=O)O,NH4OH,162,13.063480104292822,CHCl3,bcu,1236.7556047107726,11.965838881890992,0.6224245959864421,-48.21525825891826
MOF_1076,Cu,C1=CC(=CC=C1C(=O)O)C(=O)O,No additive,45,35.209029594193794,H2O,dia,1863.012743563746,5.726530275342412,0.3063162874904229,-44.47886425983893
MOF_1077,Co,C1=C(C(=C(C(=C1Cl)Cl)Cl)Cl)C(=O)O,,68,4.930592227374317,H2O,bcu,1430.8273990081098,15.162768241116881,0.47856224297837624,-45.4172975047564
MOF_1078,Cu,C1=CC(=C(C=C1)C(=O)O)C(=O)O,No additive,144,22.433051031293626,MeOH,mtn,2851.914359158966,14.939076533844142,0.2120206304463291,-48.73253808735403
MOF_1079,Co,C1=CC(=CC=C1)C(=O)O,Formic acid,155,38.138062868922624,DMF,cmo,1602.759319603521,19.43817366967541,0.2845876021940685,-52.56823652718492
MOF_1080,Fe,C1=C(C(=C(C(=C1Cl)Cl)Cl)Cl)C(=O)O,Pyridine,96,18.904250054074982,MeOH,dia,2253.9981010008437,8.103267133196294,0.6073078310173169,-42.85584116772828
MOF_1081,Ni,C1=CC(=CC=C1C(=O)O)C(=O)O,NH4OH,62,28.804432463597575,MeOH,cmo,1390.7646003989314,15.85957309824804,0.6484769620890525,-41.19928677411822
MOF_1082,Fe,C1=CC(=CC=C1C(=O)O)C(=O)O,NH4OH,162,13.019086244340075,EtOH,dia,1823.1837398350253,10.379109440359693,0.2691914199427261,-44.0463568594322
MOF_1083,Cu,C1=CC(=CC=C1C(=O)O)C(=O)O,NH4OH,147,36.647797209551584,CHCl3,cmo,1710.6630774628047,12.494037457474294,0.33662573024671827,-48.164191261407304
MOF_1084,Ni,C1=CC(=C(C=C1)C(=O)O)C(=O)O,Formic acid,120,6.300280543825423,H2O,mtn,2417.29309128333,16.87971554520949,0.2593426679222307,-47.24498626236785
MOF_1085,Fe,C1=CC(=C(C=C1)C(=O)O)C(=O)O,No additive,75,41.51187637452202,DMF,cmo,1935.8994683286164,6.773915765322585,0.46004770635507014,-50.63108022466789
MOF_1086,Zn,C1=C(C(=C(C(=C1Cl)Cl)Cl)Cl)C(=O)O,Pyridine,98,12.720641002553398,CHCl3,bcu,1765.084703138752,8.828768571966053,0.27566964244678,-43.456542015047646
MOF_1087,Cu,C1=CC(=CC=C1)C(=O)O,NH4OH,95,42.473513395166556,CHCl3,cmo,1787.8169684854972,16.146247393359147,0.4623776103001341,-48.39501679624644
MOF_1088,Fe,C1=C(C(=C(C(=C1Cl)Cl)Cl)Cl)C(=O)O,Pyridine,109,19.511286617222762,DMF,dia,2253.471666080037,12.697784559893636,0.6392589534806791,-45.67706336690649
MOF_1089,Zn,C1=CC(=C(C=C1C(=O)O)C(=O)O)O,HCl,143,35.79807727687741,CHCl3,pcu,2314.9273828814053,4.571189587386193,0.6100331798860505,-50.42004267623657
MOF_1090,Zn,C1=CC(=CC=C1C(=O)O)C(=O)O,NaOH,126,18.045913102592294,EtOH,cmo,1888.9044999134057,10.31315973523472,0.36827629211110713,-44.71278515353686
MOF_1091,Mn,C1=CC(=CC=C1C(=O)O)C(=O)O,NaOH,67,43.86011353432449,CHCl3,cmo,1702.5759658930008,12.972766320541279,0.6042575295481596,-48.940385526616566
MOF_1092,Cu,C1=CC(=CC=C1C(=O)O)C(=O)O,Pyridine,141,9.572033522808471,EtOH,cmo,1365.6434795676514,18.461794379565895,0.7566272785397463,-47.59437058116237
MOF_1093,Zn,C1=C(C(=C(C(=C1Cl)Cl)Cl)Cl)C(=O)O,AcOH,109,11.854870727994342,H2O,dia,2201.7545023179573,6.204296848956857,0.40851463225094936,-48.35441748311027
MOF_1094,Mn,C1=C(C(=C(C(=C1Cl)Cl)Cl)Cl)C(=O)O,AcOH,120,25.6933255069873,H2O,cmo,1321.4543571315528,16.70120046241721,0.397471492218564,-53.15843125327226
MOF_1095,Fe,C1=CC(=CC=C1C(=O)O)C(=O)O,Formic acid,143,7.60529131767843,MeOH,dia,2295.5021189601757,5.220616212302053,0.5428631908892105,-47.8426870255393
MOF_1096,Al,C1=C(C(=C(C(=C1Cl)Cl)Cl)Cl)C(=O)O,Formic acid,66,12.623128126877525,EtOH,dia,2118.8003869847007,7.118006221288723,0.3473010866164831,-47.13190771715998
MOF_1097,Cu,C1=CC(=C(C=C1)C(=O)O)C(=O)O,NaOH,98,45.52572081732863,H2O,pcu,2541.4275786126705,7.136846019332092,0.5909473567881512,-50.28692325345655
MOF_1098,Ni,C1=CC(=C(C=C1)C(=O)O)C(=O)O,HCl,84,46.965545090507035,CHCl3,bcu,1227.189966788797,17.917146330450155,0.6993570624034886,-54.16516455544249
MOF_1099,Co,C1=C(C(=C(C(=C1Cl)Cl)Cl)Cl)C(=O)O,,52,20.555410490538566,DMF,dia,2473.8820443800546,6.3833007642547805,0.4755911030591793,-46.14484548510704
MOF_1100,Co,C1=CC(=CC=C1C(=O)O)C(=O)O,No additive,110,44.62458492461317,DMF,mtn,2776.934454015239,16.378332358751955,0.6077043949570295,-50.6707201894674
MOF_1101,Fe,C1=C(C(=C(C(=C1Cl)Cl)Cl)Cl)C(=O)O,No additive,175,27.972285729630997,EtOH,cmo,2032.5207717827768,10.85071107833354,0.5911312543297973,-50.85491559841815
MOF_1102,Tb,C1=C(C(=C(C(=C1Cl)Cl)Cl)Cl)C(=O)O,Formic acid,44,15.86866849844575,MeOH,mtn,2773.3760289039524,19.984543052554283,0.22319933710855372,-41.97885910548023
MOF_1103,Tb,C1=C(C(=C(C(=C1Cl)Cl)Cl)Cl)C(=O)O,HCl,99,34.905543727546345,CHCl3,cmo,1762.1410507654869,17.264555477085793,0.3100497771054659,-49.813444170865495
MOF_1104,Fe,C1=CC(=C(C=C1C(=O)O)C(=O)O)O,Formic acid,119,32.991679489293716,EtOH,pcu,3117.7159287435393,15.574953285612906,0.7361180010908781,-51.280325130765156
MOF_1105,Zn,C1=CC(=C(C=C1)C(=O)O)C(=O)O,,103,47.52151404078427,DMF,dia,1847.9677703546652,17.802347213087323,0.7633352884190117,-45.37603310459682
MOF_1106,Cu,C1=CC(=CC=C1)C(=O)O,No additive,96,15.662080646008466,EtOH,bcu,1215.6631658300666,13.778516674285571,0.6682637839467065,-48.01756889654214
MOF_1107,Co,C1=CC(=CC=C1)C(=O)O,Pyridine,61,33.570618117116354,CHCl3,dia,2435.068268125571,17.34208836098446,0.752748888996617,-43.155315616618466
MOF_1108,Co,C1=CC(=C(C=C1C(=O)O)C(=O)O)O,Formic acid,106,6.289045221295663,H2O,cmo,1463.307053939062,7.439156405144749,0.3836891905511449,-49.82605255738108
MOF_1109,Zn,C1=C(C(=C(C(=C1Cl)Cl)Cl)Cl)C(=O)O,NH4OH,77,9.000425702655654,CHCl3,bcu,1135.8005094569548,4.660954588718274,0.3486265830674282,-43.26060734234579
MOF_1110,Co,C1=CC(=C(C=C1C(=O)O)C(=O)O)O,Pyridine,34,4.172408497848103,H2O,dia,2033.4949008752656,13.470844120473368,0.430580112536312,-39.15822013484302
MOF_1111,Ni,C1=CC(=C(C=C1C(=O)O)C(=O)O)O,,135,47.976269966625615,H2O,bcu,964.0514051677515,10.389736675280961,0.2332051991302717,-48.50489783354118
MOF_1112,Cu,C1=CC(=CC=C1C(=O)O)C(=O)O,,128,39.30004267448902,H2O,cmo,1867.4500145945833,10.249493519971344,0.6859229714247967,-52.2683550416961
MOF_1113,Dy,C1=CC(=C(C=C1)C(=O)O)C(=O)O,Formic acid,101,38.61581264827579,EtOH,pcu,3271.0282501020606,11.954713491310786,0.7905052910690464,-50.01224770351818
MOF_1114,Co,C1=CC(=CC=C1)C(=O)O,NaOH,106,26.42794731267991,DMF,pcu,2540.952194217616,9.143504396614222,0.6944175754619659,-49.772306800417994
MOF_1115,Fe,C1=C(C(=C(C(=C1Cl)Cl)Cl)Cl)C(=O)O,Formic acid,132,17.202951647839356,EtOH,dia,2095.8764705328003,13.643012034528095,0.532985200911529,-48.15998811496269
MOF_1116,Ni,C1=CC(=CC=C1)C(=O)O,NaOH,106,10.65562851635774,DMF,mtn,2383.112429504909,3.5196622449097084,0.3771691822897699,-43.921709296264616
MOF_1117,Co,C1=CC(=CC=C1)C(=O)O,,127,16.5256885092444,CHCl3,cmo,1706.469838736164,19.488152811989977,0.3186187331261484,-48.421370434762316
MOF_1118,Ni,C1=CC(=C(C=C1)C(=O)O)C(=O)O,HCl,91,20.542733764882122,MeOH,dia,2040.3008898805401,18.720052864774697,0.41843772307799604,-47.035213863909945
MOF_1119,Mn,C1=CC(=CC=C1)C(=O)O,,139,37.27764426713294,CHCl3,dia,1826.5424513046212,18.89959276389287,0.6001817177289239,-48.21256073991149
MOF_1120,Dy,C1=CC(=CC=C1)C(=O)O,No additive,109,27.745118711738705,EtOH,pcu,3217.710278002793,9.205059424923213,0.46823693332449423,-44.25295752190452
MOF_1121,Cr,C1=CC(=C(C=C1C(=O)O)C(=O)O)O,Pyridine,105,7.409279568441239,EtOH,bcu,1796.1016570129532,12.042146280204696,0.7604358920506917,-42.295895037251995
MOF_1122,Fe,C1=CC(=C(C=C1)C(=O)O)C(=O)O,Pyridine,61,4.793276394192139,DMF,cmo,1571.3180363795343,19.22022025197878,0.7125322057794397,-46.36679255755689
MOF_1123,Fe,C1=CC(=CC=C1C(=O)O)C(=O)O,AcOH,108,8.502615899498778,EtOH,bcu,1251.1822050988596,18.33988295926897,0.2614403695777394,-51.428417847396
MOF_1124,Cu,C1=C(C(=C(C(=C1Cl)Cl)Cl)Cl)C(=O)O,AcOH,75,22.06194340268469,H2O,cmo,1648.5321230312102,16.434156090319505,0.278915134331426,-53.01302043542744
MOF_1125,Ni,C1=CC(=CC=C1)C(=O)O,,80,45.0604883501568,EtOH,mtn,2078.2675161488655,9.924637027409071,0.6057435111800666,-49.01909856195171
MOF_1126,Zn,C1=C(C(=C(C(=C1Cl)Cl)Cl)Cl)C(=O)O,No additive,75,32.04570917320575,DMF,pcu,3078.1752066294107,12.593766794096949,0.3384610339882126,-47.15927621820039
MOF_1127,Fe,C1=CC(=CC=C1C(=O)O)C(=O)O,AcOH,68,39.280339594522665,DMF,mtn,2699.152400776838,16.47951206168301,0.6746179262070509,-49.9117900488177
MOF_1128,Ni,C1=C(C(=C(C(=C1Cl)Cl)Cl)Cl)C(=O)O,Pyridine,163,24.520482158200135,H2O,dia,2160.363928054604,7.64120392418054,0.5548148853958119,-45.44586770758795
MOF_1129,Ni,C1=CC(=CC=C1C(=O)O)C(=O)O,Formic acid,139,19.913307660581882,DMF,pcu,2539.921572083121,13.649639259877894,0.33789831664001,-53.07431110300344
MOF_1130,Al,C1=CC(=C(C=C1C(=O)O)C(=O)O)O,HCl,157,8.769616399531401,MeOH,dia,2574.9663064044535,17.074883522481564,0.48721207848835474,-45.85873910141831
MOF_1131,Al,C1=CC(=CC=C1)C(=O)O,HCl,63,42.541052976193015,CHCl3,mtn,3045.9285801003753,15.026731459459324,0.44364577542022005,-47.379474039871894
MOF_1132,Cr,C1=CC(=CC=C1C(=O)O)C(=O)O,No additive,102,38.459041277227726,EtOH,cmo,1974.6421651113524,11.151170730247012,0.7238956155136429,-44.285567684517005
MOF_1133,Mn,C1=C(C(=C(C(=C1Cl)Cl)Cl)Cl)C(=O)O,,61,11.397196294299905,MeOH,dia,2233.3391851012075,12.938342112437692,0.21929748498623017,-47.51287867567477
MOF_1134,Cr,C1=CC(=CC=C1)C(=O)O,AcOH,79,26.53946481055546,EtOH,bcu,1669.042546169357,19.8074842334785,0.7375063342800741,-50.52766606257306
MOF_1135,Co,C1=CC(=C(C=C1C(=O)O)C(=O)O)O,Formic acid,72,25.444491548534774,MeOH,cmo,1552.3265344744698,13.233792509002571,0.5912496097278461,-51.74697866466658
MOF_1136,Zn,C1=CC(=CC=C1)C(=O)O,HCl,137,31.504028318207258,EtOH,cmo,1824.7679986142982,16.355501818316945,0.6425229125290273,-51.07088126546291
MOF_1137,Co,C1=CC(=CC=C1C(=O)O)C(=O)O,HCl,88,45.63222333561549,H2O,mtn,2468.2061665772035,15.352280994420266,0.20156447803558025,-50.130157824526236
MOF_1138,Tb,C1=CC(=C(C=C1C(=O)O)C(=O)O)O,NH4OH,132,29.509943437549104,DMF,mtn,3210.729336118939,14.925340463999174,0.5769436604223395,-39.5514322750094
MOF_1139,Co,C1=C(C(=C(C(=C1Cl)Cl)Cl)Cl)C(=O)O,,118,27.76955973825922,DMF,pcu,3024.137456399501,15.17827393693874,0.5530916982266156,-49.68379076336296
MOF_1140,Cu,C1=CC(=C(C=C1C(=O)O)C(=O)O)O,NH4OH,169,6.2142090491252135,H2O,pcu,2698.399193502148,10.724965771784886,0.52232333383178,-47.090466352289546
MOF_1141,Co,C1=CC(=C(C=C1C(=O)O)C(=O)O)O,Pyridine,55,6.767928944793053,MeOH,bcu,1398.0279320146656,11.06072296680813,0.6715201140235311,-44.84212445406975
MOF_1142,Cr,C1=CC(=C(C=C1)C(=O)O)C(=O)O,HCl,137,12.243258818378711,CHCl3,cmo,2139.5662389058575,10.9536665351333,0.5335226578379032,-45.36133485233846
MOF_1143,Fe,C1=CC(=C(C=C1C(=O)O)C(=O)O)O,No additive,134,5.428713954436924,MeOH,bcu,1662.448004821626,3.5653283226143375,0.7142583137359146,-45.82329941214688
MOF_1144,Fe,C1=CC(=C(C=C1C(=O)O)C(=O)O)O,NaOH,70,36.70752740508055,DMF,bcu,1334.4729469568351,7.098110615649499,0.33957889184578305,-47.26617987747935
MOF_1145,Al,C1=CC(=CC=C1)C(=O)O,NaOH,130,35.82653337573438,CHCl3,mtn,2974.467201240726,5.627588113048008,0.68358955338302,-43.83220559226223
MOF_1146,Zn,C1=C(C(=C(C(=C1Cl)Cl)Cl)Cl)C(=O)O,Formic acid,110,9.98647431499229,EtOH,bcu,1660.4524614893498,18.069565193753373,0.30758766369488344,-52.126538193834605
MOF_1147,Zn,C1=CC(=CC=C1)C(=O)O,HCl,93,40.78747163499236,CHCl3,bcu,1565.9904512154076,7.674479229700133,0.6878706751813881,-51.393039891014354
MOF_1148,Cu,C1=CC(=CC=C1)C(=O)O,HCl,75,10.810585533228927,MeOH,dia,1607.5821128462737,5.353524785914187,0.7642781112971406,-49.11187371862503
MOF_1149,Cr,C1=CC(=CC=C1C(=O)O)C(=O)O,Pyridine,78,17.25172582788379,H2O,pcu,3496.545391982285,5.036037842485044,0.4014164853862305,-43.041576509225
MOF_1150,Al,C1=CC(=CC=C1)C(=O)O,HCl,161,14.954983563100061,EtOH,pcu,3254.5762629427472,14.899827187386698,0.5179317883881134,-51.29360232833363
MOF_1151,Tb,C1=CC(=C(C=C1)C(=O)O)C(=O)O,No additive,100,20.3815123372141,MeOH,cmo,2134.7897480413617,3.103416285554308,0.5949974137538887,-46.350795883052754
MOF_1152,Zn,C1=CC(=C(C=C1)C(=O)O)C(=O)O,NH4OH,123,15.205205699158322,EtOH,pcu,2761.5698544693278,11.01217482986064,0.2476829995126968,-44.518749622145606
MOF_1153,Fe,C1=CC(=CC=C1C(=O)O)C(=O)O,HCl,76,25.513840763291892,CHCl3,cmo,1740.4779869404344,5.020808795169336,0.4964484309224722,-51.342158834232315
MOF_1154,Co,C1=C(C(=C(C(=C1Cl)Cl)Cl)Cl)C(=O)O,HCl,76,21.925946779606157,DMF,dia,2192.669046680926,17.444277419810387,0.41635098595294806,-49.43315785865221
MOF_1155,Co,C1=C(C(=C(C(=C1Cl)Cl)Cl)Cl)C(=O)O,Pyridine,132,47.40905759429037,MeOH,pcu,2583.8838790193595,19.29365605969179,0.723473378750785,-47.94521730912459
MOF_1156,Al,C1=CC(=CC=C1)C(=O)O,,59,6.460759405641929,H2O,dia,2185.8910900311234,19.298828475653362,0.7260077112249959,-45.69370070833461
MOF_1157,Cr,C1=CC(=CC=C1)C(=O)O,AcOH,87,10.255980561043472,CHCl3,pcu,3472.09582421352,10.513389852095077,0.6204677237283422,-47.25175032864302
MOF_1158,Cr,C1=CC(=CC=C1)C(=O)O,,101,6.324339331978509,MeOH,pcu,3166.579475045868,13.95675201539154,0.593434684755499,-46.762881966197384
MOF_1159,Mn,C1=C(C(=C(C(=C1Cl)Cl)Cl)Cl)C(=O)O,Pyridine,103,31.537012579224534,H2O,dia,1828.2982244908922,13.194970320682659,0.6402130755655142,-45.08309361405779
MOF_1160,Dy,C1=CC(=C(C=C1C(=O)O)C(=O)O)O,,94,6.398408206203662,MeOH,bcu,1518.076268178551,8.9506613235612,0.41959214060168426,-45.564740987185175
MOF_1161,Zn,C1=CC(=C(C=C1)C(=O)O)C(=O)O,Pyridine,111,40.80334844454943,CHCl3,bcu,1863.9877134638332,10.549096354149029,0.4427115480503753,-45.729233203839584
MOF_1162,Cr,C1=CC(=C(C=C1C(=O)O)C(=O)O)O,No additive,120,26.525299750004823,MeOH,bcu,1754.124553033712,4.093502852965857,0.5322228337332233,-45.931391687103805
MOF_1163,Fe,C1=CC(=C(C=C1C(=O)O)C(=O)O)O,Formic acid,122,27.188335481587483,EtOH,bcu,1373.9210046587666,16.52688355541528,0.7628168764186805,-53.16837095507098
MOF_1164,Al,C1=C(C(=C(C(=C1Cl)Cl)Cl)Cl)C(=O)O,HCl,70,28.710158339336544,CHCl3,pcu,3061.5249618935595,7.093659706628523,0.6343999244717375,-52.12229713232979
MOF_1165,Tb,C1=CC(=C(C=C1C(=O)O)C(=O)O)O,Pyridine,91,11.515803077473272,MeOH,mtn,2890.3270753705233,10.828964629318396,0.5305935466977341,-37.45818798248293
MOF_1166,Mn,C1=CC(=CC=C1C(=O)O)C(=O)O,Pyridine,135,12.698373337037452,DMF,dia,1847.9799817543849,11.170552471482946,0.6622478089380288,-45.33619034903299
MOF_1167,Ni,C1=CC(=CC=C1)C(=O)O,AcOH,126,18.027962206412205,MeOH,mtn,2597.011616238009,12.532099565572409,0.4225341873430551,-48.1474411877714
MOF_1168,Cu,C1=CC(=CC=C1C(=O)O)C(=O)O,Pyridine,58,30.11384229616146,EtOH,mtn,2358.0371805446534,16.90390284409753,0.6382800206866224,-42.967403097229955