mof_name,metal,linker_smiles,surface_func_group,temperature_celsius,reaction_time_hours,solvent,topology,surface_area_m2g,pore_diameter_angstrom,void_fraction,formation_energy_kJ_mol
MOF_1429,Fe,C1=CC(=CC=C1)C(=O)O,HCl,105,4.92562370826062,DMF,mtn,2725.1643840795687,12.923448252722123,0.7117007439112863,-48.69171489170311
MOF_1430,Dy,C1=CC(=C(C=C1)C(=O)O)C(=O)O,HCl,44,35.80492497160934,DMF,cmo,1943.5487663481758,9.851603311889649,0.3320570241645622,-45.19703231653529
MOF_1431,Fe,C1=CC(=C(C=C1)C(=O)O)C(=O)O,NaOH,73,5.429410254367259,H2O,dia,2190.7578664444814,19.09054116385457,0.30814762238668586,-42.84559687339668
MOF_1432,Dy,C1=CC(=C(C=C1)C(=O)O)C(=O)O,NH4OH,98,30.1921810085784,H2O,bcu,1626.7291440837607,7.190862029269262,0.20936446199315653,-41.01912440556563
MOF_1433,Zn,C1=CC(=CC=C1)C(=O)O,Pyridine,116,27.724526941601834,CHCl3,mtn,2270.9211708611942,16.6526077899708,0.3263466692175121,-39.0167009423079
MOF_1434,Tb,C1=CC(=C(C=C1)C(=O)O)C(=O)O,HCl,34,46.627846385423396,EtOH,cmo,2055.2531944132224,13.404843564618606,0.5111188599900252,-44.11939343231979
MOF_1435,Dy,C1=CC(=CC=C1C(=O)O)C(=O)O,HCl,95,25.305378131296234,MeOH,dia,2194.810137090468,9.407215287048633,0.5231053238084682,-46.12497508295971
MOF_1436,Ni,C1=CC(=C(C=C1)C(=O)O)C(=O)O,NH4OH,104,6.798463200623084,CHCl3,pcu,2842.6988326915452,3.0232557341801254,0.3526522947173206,-45.3678051764495
MOF_1437,Dy,C1=C(C(=C(C(=C1Cl)Cl)Cl)Cl)C(=O)O,No additive,125,28.274270583484313,DMF,cmo,1843.8359713129535,10.592188122926656,0.24336450202471993,-44.895852044622906
MOF_1438,Cr,C1=CC(=CC=C1)C(=O)O,HCl,120,41.00823150710846,H2O,bcu,1159.3991582159267,7.7042399582190875,0.6467844778071238,-48.67911245251086
MOF_1439,Zn,C1=C(C(=C(C(=C1Cl)Cl)Cl)Cl)C(=O)O,AcOH,117,47.86136850838336,EtOH,bcu,1146.1417678287373,4.77389242653453,0.6547852091373799,-50.753533257882005
MOF_1440,Ni,C1=CC(=C(C=C1)C(=O)O)C(=O)O,NH4OH,76,22.93509964231919,CHCl3,cmo,1575.704668342283,4.277695610747442,0.7987018377749371,-45.407563399334336
MOF_1441,Mn,C1=CC(=CC=C1C(=O)O)C(=O)O,HCl,42,18.09314466985667,EtOH,cmo,1567.3015624480138,8.908491564297233,0.7400177423208307,-52.26471305137484
MOF_1442,Ni,C1=CC(=C(C=C1C(=O)O)C(=O)O)O,NaOH,88,43.89274506588795,H2O,dia,1653.47263673792,13.450875608591026,0.7556372387105856,-43.125567717363076
MOF_1443,Cr,C1=CC(=C(C=C1)C(=O)O)C(=O)O,Formic acid,130,12.41465367934934,CHCl3,cmo,1765.522349051544,17.237828361201153,0.6789222954463652,-47.79448785312693
MOF_1444,Tb,C1=CC(=CC=C1C(=O)O)C(=O)O,AcOH,141,31.078872261448772,CHCl3,pcu,3358.386222422724,6.120575164104557,0.5693017120294995,-50.291636631319925
MOF_1445,Zn,C1=CC(=CC=C1)C(=O)O,,121,21.8514346639617,EtOH,dia,2394.4455515941263,10.218947512253845,0.2771275745627063,-44.750010369649004
MOF_1446,Mn,C1=C(C(=C(C(=C1Cl)Cl)Cl)Cl)C(=O)O,,112,5.807624058044432,H2O,mtn,2137.9835638524223,9.663254382416588,0.5733879784735267,-47.028744635133606
MOF_1447,Cr,C1=C(C(=C(C(=C1Cl)Cl)Cl)Cl)C(=O)O,Formic acid,111,19.280692869450704,DMF,pcu,3375.8350525035794,11.727698156544765,0.23357351624877598,-46.63308687491524
MOF_1448,Cr,C1=C(C(=C(C(=C1Cl)Cl)Cl)Cl)C(=O)O,,83,15.670054990117682,CHCl3,dia,2072.261874204171,16.7629836037624,0.7311794667627154,-41.14384374109112
MOF_1449,Cu,C1=CC(=CC=C1)C(=O)O,Formic acid,96,34.188010773513426,DMF,dia,2043.1777473409068,12.411968705986991,0.48909280124851856,-51.705654641216626
MOF_1450,Zn,C1=CC(=CC=C1C(=O)O)C(=O)O,HCl,150,45.7467818984444,H2O,bcu,1651.1584162111885,17.393133529539,0.6184836991854803,-53.91559901220182
MOF_1451,Ni,C1=CC(=CC=C1)C(=O)O,AcOH,71,15.794076244660062,CHCl3,dia,2040.8413221445012,11.815379853172622,0.2313461982175784,-47.578361500414644
MOF_1452,Fe,C1=C(C(=C(C(=C1Cl)Cl)Cl)Cl)C(=O)O,AcOH,148,39.704501322674,CHCl3,pcu,3048.8795561375396,13.265405208081615,0.5205490537536952,-54.27326092450964
MOF_1453,Tb,C1=CC(=C(C=C1)C(=O)O)C(=O)O,No additive,90,6.435831945290019,DMF,cmo,2201.5484801057687,10.435515122380826,0.3807580387120175,-46.28263010440848
MOF_1454,Fe,C1=CC(=C(C=C1C(=O)O)C(=O)O)O,Formic acid,139,27.67732444175178,MeOH,pcu,3219.386363190024,16.992624865025775,0.37098095944234744,-54.37019053030336
MOF_1455,Ni,C1=CC(=CC=C1)C(=O)O,AcOH,57,7.104202803235362,DMF,mtn,2485.7236838118174,18.705062508199095,0.43379354882190957,-46.39406719440511
MOF_1456,Ni,C1=CC(=CC=C1)C(=O)O,No additive,117,45.09745160974813,DMF,dia,2305.9782771394084,13.865460548093477,0.20038367651632094,-47.009049392919096
MOF_1457,Zn,C1=CC(=CC=C1C(=O)O)C(=O)O,NH4OH,77,37.71945634452517,MeOH,dia,2011.1801819826835,16.95330163593937,0.47999652903210416,-41.8187022614456
MOF_1458,Ni,C1=CC(=CC=C1C(=O)O)C(=O)O,No additive,57,32.949796093002064,H2O,dia,1894.931651255705,4.003056677984705,0.491940010164763,-43.59323437199389
MOF_1459,Cu,C1=CC(=CC=C1)C(=O)O,NaOH,106,40.25144079148523,H2O,dia,1956.9993653919867,18.403899774593178,0.7178785495034385,-47.4197636335426
MOF_1460,Mn,C1=C(C(=C(C(=C1Cl)Cl)Cl)Cl)C(=O)O,Pyridine,130,32.49087100508718,CHCl3,bcu,1066.4431081619675,6.211726136265118,0.4691153647294895,-48.93999481993239
MOF_1461,Ni,C1=CC(=C(C=C1C(=O)O)C(=O)O)O,HCl,74,46.63355347566881,EtOH,bcu,847.8682265571761,7.360847264538735,0.4181337763206038,-52.599669899773694
MOF_1462,Fe,C1=CC(=CC=C1C(=O)O)C(=O)O,NH4OH,55,35.41414970604995,EtOH,cmo,1883.8596723623302,3.906611159514686,0.796848230817478,-47.13466785863392
MOF_1463,Ni,C1=C(C(=C(C(=C1Cl)Cl)Cl)Cl)C(=O)O,Pyridine,97,44.684978821618856,CHCl3,dia,1750.0131692194684,19.411801988559002,0.5427279947614978,-43.928861781282336
MOF_1464,Cu,C1=CC(=C(C=C1)C(=O)O)C(=O)O,Pyridine,97,26.753803248468074,EtOH,mtn,2439.834198543411,17.484184441302396,0.48356792518048375,-43.32094743894687
MOF_1465,Dy,C1=CC(=CC=C1C(=O)O)C(=O)O,NH4OH,116,9.150834171201957,DMF,cmo,2386.917052954139,18.524138269548423,0.4975615007290277,-39.339964920772175
MOF_1466,Dy,C1=C(C(=C(C(=C1Cl)Cl)Cl)Cl)C(=O)O,NaOH,128,27.239819742612752,DMF,dia,2644.4170150945624,17.402674851920253,0.6855087785052831,-39.729710089289036
MOF_1467,Cr,C1=C(C(=C(C(=C1Cl)Cl)Cl)Cl)C(=O)O,No additive,98,9.582404434776105,MeOH,bcu,1998.0422909470058,11.152019396261911,0.4044058213820966,-44.65320987867511
MOF_1468,Tb,C1=CC(=C(C=C1C(=O)O)C(=O)O)O,HCl,155,30.069713083761823,MeOH,mtn,3160.106206819255,18.70939287954298,0.4334962776115674,-46.84917409791916
MOF_1469,Al,C1=CC(=C(C=C1C(=O)O)C(=O)O)O,No additive,106,25.22969466321717,CHCl3,cmo,2001.0985454595418,19.4810379472622,0.6535240156024793,-45.58546157096491
MOF_1470,Mn,C1=CC(=C(C=C1)C(=O)O)C(=O)O,AcOH,89,31.393317504642397,CHCl3,mtn,2331.86568849995,11.543638605419758,0.2437902437682617,-51.7889076790411
MOF_1471,Co,C1=C(C(=C(C(=C1Cl)Cl)Cl)Cl)C(=O)O,No additive,51,4.44206716641259,CHCl3,dia,1854.2607402446956,5.985621282590249,0.7191014948859553,-45.61611869152437
MOF_1472,Cr,C1=C(C(=C(C(=C1Cl)Cl)Cl)Cl)C(=O)O,,92,12.57298163283602,DMF,pcu,3410.358590827063,14.196582652372605,0.458121617880782,-45.693500053333445
MOF_1473,Tb,C1=CC(=C(C=C1C(=O)O)C(=O)O)O,NH4OH,89,25.61853900413376,EtOH,mtn,3048.8197580339024,19.5824509275107,0.5487757853033891,-39.42355476669603
MOF_1474,Dy,C1=CC(=CC=C1C(=O)O)C(=O)O,HCl,128,45.822156709921934,CHCl3,mtn,3348.9043932487443,17.826496617600874,0.6544856955559011,-46.85764679024233
MOF_1475,Fe,C1=CC(=CC=C1C(=O)O)C(=O)O,No additive,113,20.87879777562697,CHCl3,bcu,1310.9061964023563,17.650857994480425,0.35963115346360697,-49.9858436701068
MOF_1476,Co,C1=CC(=CC=C1)C(=O)O,HCl,64,22.672369146359927,DMF,dia,1988.9233494628966,18.874906285723796,0.7341885249923907,-51.20202237118707
MOF_1477,Tb,C1=CC(=C(C=C1C(=O)O)C(=O)O)O,HCl,105,35.446627916291376,DMF,mtn,3116.943498939885,18.1971884293933,0.7875349833539667,-46.42996678084095
MOF_1478,Tb,C1=CC(=CC=C1)C(=O)O,AcOH,120,30.566881320589193,DMF,dia,2679.393005009132,16.19678828831098,0.4965646168436748,-45.786819574007495
MOF_1479,Cr,C1=CC(=C(C=C1C(=O)O)C(=O)O)O,AcOH,145,17.152750604326663,EtOH,bcu,1565.1302717548529,15.210638146751062,0.7621624190196041,-51.613744970275484
MOF_1480,Co,C1=CC(=C(C=C1)C(=O)O)C(=O)O,NH4OH,126,22.07592140496682,CHCl3,dia,2261.3980239185234,7.501041953660824,0.20067717351618966,-45.61971855042403
MOF_1481,Zn,C1=C(C(=C(C(=C1Cl)Cl)Cl)Cl)C(=O)O,NaOH,122,13.578791149718228,H2O,bcu,1319.0296519198798,13.562780364283636,0.7365426977813172,-42.2652954766433
MOF_1482,Al,C1=CC(=C(C=C1)C(=O)O)C(=O)O,,101,46.504944201729174,H2O,bcu,1628.9715183339213,11.865306569000122,0.38662719185078337,-47.88471236170114
MOF_1483,Zn,C1=CC(=C(C=C1C(=O)O)C(=O)O)O,Pyridine,111,9.747912788523829,CHCl3,cmo,1662.4798744822422,17.65304955687685,0.38689725483656123,-42.23037101074767
MOF_1484,Co,C1=C(C(=C(C(=C1Cl)Cl)Cl)Cl)C(=O)O,HCl,137,20.360818520922457,CHCl3,dia,2247.149164447942,11.359113749331225,0.3368533188619637,-48.24994770553988
MOF_1485,Zn,C1=CC(=CC=C1C(=O)O)C(=O)O,NaOH,60,5.136914777680492,CHCl3,pcu,2836.267300892896,5.171626980225715,0.39020834069054117,-44.22769282950133
MOF_1486,Cu,C1=CC(=CC=C1C(=O)O)C(=O)O,Pyridine,89,13.758297645076041,CHCl3,cmo,1476.6534512355665,3.0845322504799357,0.3280907502191811,-43.70451209488507
MOF_1487,Dy,C1=CC(=CC=C1)C(=O)O,Pyridine,76,38.340730088726815,EtOH,bcu,1473.7395133009518,14.523843047967308,0.743521463785983,-42.55225651552092
MOF_1488,Cu,C1=CC(=C(C=C1C(=O)O)C(=O)O)O,,111,12.851710220710697,H2O,pcu,2720.6081228972043,12.348442581161745,0.7394142363280201,-49.64335043167075
MOF_1489,Ni,C1=CC(=C(C=C1C(=O)O)C(=O)O)O,NH4OH,136,7.522789711274486,MeOH,mtn,2582.20974096987,8.62636937409362,0.26132678895237355,-42.86833511259601
MOF_1490,Zn,C1=CC(=CC=C1C(=O)O)C(=O)O,Pyridine,82,24.875939913159023,H2O,mtn,2896.6258367381593,5.872526550644135,0.2857150573198955,-39.246426754170194
MOF_1491,Ni,C1=CC(=C(C=C1)C(=O)O)C(=O)O,,28,4.438646328318814,H2O,cmo,1555.152408012589,10.934160480866336,0.7172111834064001,-43.115948169398266
MOF_1492,Fe,C1=C(C(=C(C(=C1Cl)Cl)Cl)Cl)C(=O)O,Pyridine,87,7.72971079475866,DMF,pcu,2717.8917736925364,4.704870032141396,0.43936266252364764,-44.831017674666676
MOF_1493,Mn,C1=CC(=C(C=C1)C(=O)O)C(=O)O,HCl,127,39.535538260770906,CHCl3,dia,1814.2640164584207,8.713844316759433,0.301563006403567,-52.69363298476252
MOF_1494,Fe,C1=CC(=C(C=C1)C(=O)O)C(=O)O,HCl,116,37.94482717382268,CHCl3,pcu,2801.8940954129594,9.446602406005784,0.5064016414619403,-56.80205288555725
MOF_1495,Co,C1=CC(=CC=C1C(=O)O)C(=O)O,Formic acid,112,44.266108097815426,CHCl3,cmo,1706.5220854844,10.915517812245357,0.45000082995205704,-55.05678314949779
MOF_1496,Tb,C1=CC(=CC=C1C(=O)O)C(=O)O,NaOH,91,41.59867918007298,DMF,dia,2500.7705620946454,10.932552772760395,0.33149693224277915,-40.010145674319205
MOF_1497,Dy,C1=CC(=CC=C1C(=O)O)C(=O)O,No additive,61,34.059724782551996,EtOH,dia,2877.9438149168695,7.369095939062713,0.6324513309665807,-46.41533161048789
MOF_1498,Zn,C1=CC(=CC=C1)C(=O)O,,115,6.302645721229165,EtOH,mtn,2807.9272130162967,17.453586687233788,0.5787735873996386,-43.374127885028955
MOF_1499,Cr,C1=CC(=C(C=C1)C(=O)O)C(=O)O,AcOH,74,38.44533919141293,MeOH,pcu,3372.1601936930424,9.044239606364675,0.25979696813326436,-49.912749721453196